
     Program PWSCF v.4.3.2      starts on  6Jun2012 at 18: 4:19 

     This program is part of the open-source Quantum ESPRESSO suite
     for quantum simulation of materials; please cite
         "P. Giannozzi et al., J. Phys.:Condens. Matter 21 395502 (2009);
          URL http://www.quantum-espresso.org", 
     in publications or presentations arising from this work. More details at
     http://www.quantum-espresso.org/wiki/index.php/Citing_Quantum-ESPRESSO

     Parallel version (MPI), running on     4 processors
     R & G space division:  proc/pool =    4

     Current dimensions of program PWSCF are:
     Max number of different atomic species (ntypx) = 10
     Max number of k-points (npk) =  40000
     Max angular momentum in pseudopotentials (lmaxx) =  3
     Waiting for input...
     Reading input from stdin
               file n.UPF: wavefunction(s)  Xn Xn renormalized
               file o.UPF: wavefunction(s)  Xn Xn renormalized

     Subspace diagonalization in iterative solution of the eigenvalue problem:
     a serial algorithm will be used

 
     Parallelization info
     --------------------
     sticks:   dense  smooth     PW     G-vecs:    dense   smooth      PW
     Min        4030    1610    429               268756    68021    9439
     Max        4031    1611    431               268757    68026    9440
     Sum       16121    6443   1721              1075025   272093   37757
 

     Title: 
     ala_dl                                                                     


     bravais-lattice index     =            0
     lattice parameter (alat)  =       1.0000  a.u.
     unit-cell volume          =    2813.2326 (a.u.)^3
     number of atoms/cell      =           52
     number of atomic types    =            4
     number of electrons       =       144.00
     number of Kohn-Sham states=           72
     kinetic-energy cutoff     =      80.0000  Ry
     charge density cutoff     =     800.0000  Ry
     convergence threshold     =      1.0E-08
     mixing beta               =       0.7000
     number of iterations used =            8  plain     mixing
     Exchange-correlation      = B86B ( 1 418 4 0)
     EXX-fraction              =        0.00
     nstep                     =           50


     celldm(1)=   1.000000  celldm(2)=   0.000000  celldm(3)=   0.000000
     celldm(4)=   0.000000  celldm(5)=   0.000000  celldm(6)=   0.000000

     crystal axes: (cart. coord. in units of alat)
               a(1) = (  22.172575   0.000000   0.000000 )  
               a(2) = (   0.000000  11.406390   0.000000 )  
               a(3) = (   0.000000   0.000000  11.123496 )  

     reciprocal axes: (cart. coord. in units 2 pi/alat)
               b(1) = (  0.045101  0.000000  0.000000 )  
               b(2) = (  0.000000  0.087670  0.000000 )  
               b(3) = (  0.000000  0.000000  0.089900 )  


     PseudoPot. # 1 for C  read from file:
     ./c.UPF
     MD5 check sum: 7d4f5342ccdded2f34e910ef3a0bffe3
     Pseudo is Projector augmented-wave + core cor, Zval =  4.0
     Generated using ATOMPAW code
     Shape of augmentation charge: SINC**2
     Using radial grid of 2342 points,  2 beta functions with: 
                l(1) =   0
                l(2) =   1
     Q(r) pseudized with 0 coefficients 


     PseudoPot. # 2 for H  read from file:
     ./h.UPF
     MD5 check sum: a1a08a69276e7e7269f03dd4353a4644
     Pseudo is Projector augmented-wave + core cor, Zval =  1.0
     Generated using ATOMPAW code
     Shape of augmentation charge: SINC**2
     Using radial grid of 2342 points,  1 beta functions with: 
                l(1) =   0
     Q(r) pseudized with 0 coefficients 


     PseudoPot. # 3 for N  read from file:
     ./n.UPF
     MD5 check sum: 5aec23488194fe1e9fcb5a39c003f111
     Pseudo is Projector augmented-wave + core cor, Zval =  5.0
     Generated using ATOMPAW code
     Shape of augmentation charge: SINC**2
     Using radial grid of 2342 points,  4 beta functions with: 
                l(1) =   0
                l(2) =   0
                l(3) =   1
                l(4) =   1
     Q(r) pseudized with 0 coefficients 


     PseudoPot. # 4 for O  read from file:
     ./o.UPF
     MD5 check sum: 2d688a4fb970915d860abe01db6d1753
     Pseudo is Projector augmented-wave + core cor, Zval =  6.0
     Generated using ATOMPAW code
     Shape of augmentation charge: SINC**2
     Using radial grid of 2342 points,  4 beta functions with: 
                l(1) =   0
                l(2) =   0
                l(3) =   1
                l(4) =   1
     Q(r) pseudized with 0 coefficients 


     atomic species   valence    mass     pseudopotential
        c              4.00    12.01070     C ( 1.00)
        h              1.00     1.00794     H ( 1.00)
        n              5.00    14.00670     N ( 1.00)
        o              6.00    15.99940     O ( 1.00)

      4 Sym.Ops. (no inversion)


   Cartesian axes

     site n.     atom                  positions (alat units)
         1           c   tau(   1) = (   3.2033494   3.5655064   1.8164971  )
         2           c   tau(   2) = (   7.8829382   9.2687013   7.3782450  )
         3           c   tau(   3) = (  14.2896371   2.1376886   1.8164971  )
         4           c   tau(   4) = (  18.9692258   7.8408835   7.3782450  )
         5           c   tau(   5) = (   3.6247912   2.4730747   4.4828592  )
         6           c   tau(   6) = (   7.4614965   8.1762696  10.0446071  )
         7           c   tau(   7) = (  14.7110788   3.2301203   4.4828592  )
         8           c   tau(   8) = (  18.5477841   8.9333152  10.0446071  )
         9           c   tau(   9) = (   1.9538000   0.1717654   4.9609922  )
        10           c   tau(  10) = (   9.1324877   5.8749603  10.5227401  )
        11           c   tau(  11) = (  13.0400876   5.5314296   4.9609922  )
        12           c   tau(  12) = (  20.2187753  11.2346245  10.5227401  )
        13           n   tau(  13) = (   3.1451248   4.4385562   6.4411496  )
        14           n   tau(  14) = (   7.9411628  10.1417511   0.8794017  )
        15           n   tau(  15) = (  14.2314125   1.2646388   6.4411496  )
        16           n   tau(  16) = (  19.0274505   6.9678337   0.8794017  )
        17           o   tau(  17) = (   1.9764534   5.5856859   1.5788940  )
        18           o   tau(  18) = (   9.1098342  11.2888808   7.1406419  )
        19           o   tau(  19) = (  13.0627411   0.1175091   1.5788940  )
        20           o   tau(  20) = (  20.1961219   5.8207040   7.1406419  )
        21           o   tau(  21) = (   4.1509063   2.2722985   0.0071622  )
        22           o   tau(  22) = (   6.9353814   7.9754935   5.5689101  )
        23           o   tau(  23) = (  15.2371939   3.4308964   0.0071622  )
        24           o   tau(  24) = (  18.0216690   9.1340913   5.5689101  )
        25           h   tau(  25) = (   1.2925583   5.0989298   6.3683638  )
        26           h   tau(  26) = (   9.7937293  10.8021247   0.8066159  )
        27           h   tau(  27) = (  12.3788460   0.6042652   6.3683638  )
        28           h   tau(  28) = (  20.8800170   6.3074601   0.8066159  )
        29           h   tau(  29) = (   4.4226343   5.9376665   6.1701075  )
        30           h   tau(  30) = (   6.6636534   0.2344716   0.6083595  )
        31           h   tau(  31) = (  15.5089219  11.1719183   6.1701075  )
        32           h   tau(  32) = (  17.7499410   5.4687234   0.6083595  )
        33           h   tau(  33) = (   3.4542773   3.6693650   8.2619835  )
        34           h   tau(  34) = (   7.6320104   9.3725599   2.7002356  )
        35           h   tau(  35) = (  14.5405649   2.0338299   8.2619835  )
        36           h   tau(  36) = (  18.7182980   7.7370249   2.7002356  )
        37           h   tau(  37) = (   5.6208364   1.9389994   4.6804156  )
        38           h   tau(  38) = (   5.4654513   7.6421944  10.2421636  )
        39           h   tau(  39) = (  16.7071240   3.7641955   4.6804156  )
        40           h   tau(  40) = (  16.5517389   9.4673905  10.2421636  )
        41           h   tau(  41) = (   2.3626629  10.7840768   6.8278789  )
        42           h   tau(  42) = (   8.7236247   5.0808818   1.2661310  )
        43           h   tau(  43) = (  13.4489506   6.3255081   6.8278789  )
        44           h   tau(  44) = (  19.8099124   0.6223131   1.2661310  )
        45           h   tau(  45) = (   2.3036393  10.1083899   3.5504189  )
        46           h   tau(  46) = (   8.7826483   4.4051950   9.1121668  )
        47           h   tau(  47) = (  13.3899270   7.0011949   3.5504189  )
        48           h   tau(  48) = (  19.8689360   1.2979999   9.1121668  )
        49           h   tau(  49) = (  -0.0506378   0.6874031   4.9020238  )
        50           h   tau(  50) = (  11.1369255   6.3905981  10.4637717  )
        51           h   tau(  51) = (  11.0356498   5.0157918   4.9020238  )
        52           h   tau(  52) = (  22.2232131  10.7189868  10.4637717  )

     number of k points=     8
                       cart. coord. in units 2pi/alat
        k(    1) = (   0.0056376   0.0109588   0.0112375), wk =   0.2500000
        k(    2) = (   0.0056376   0.0109588   0.0337124), wk =   0.2500000
        k(    3) = (   0.0056376   0.0328763   0.0112375), wk =   0.2500000
        k(    4) = (   0.0056376   0.0328763   0.0337124), wk =   0.2500000
        k(    5) = (   0.0169128   0.0109588   0.0112375), wk =   0.2500000
        k(    6) = (   0.0169128   0.0109588   0.0337124), wk =   0.2500000
        k(    7) = (   0.0169128   0.0328763   0.0112375), wk =   0.2500000
        k(    8) = (   0.0169128   0.0328763   0.0337124), wk =   0.2500000

     Dense  grid:  1075025 G-vectors     FFT dimensions: ( 200, 108, 108)

     Smooth grid:   272093 G-vectors     FFT dimensions: ( 128,  72,  64)

     Largest allocated arrays     est. size (Mb)     dimensions
        Kohn-Sham Wavefunctions         9.38 Mb     (   8536,   72)
        NL pseudopotentials            22.40 Mb     (   8536,  172)
        Each V/rho on FFT grid          8.90 Mb     ( 583200)
        Each G-vector array             2.05 Mb     ( 268757)
        G-vector shells                 2.05 Mb     ( 268757)
     Largest temporary arrays     est. size (Mb)     dimensions
        Auxiliary wavefunctions        37.51 Mb     (   8536,  288)
        Each subspace H/S matrix        1.27 Mb     ( 288, 288)
        Each <psi_i|beta_j> matrix      0.19 Mb     (    172,   72)
        Arrays for rho mixing          71.19 Mb     ( 583200,   8)

     Initial potential from superposition of free atoms

     starting charge  143.99919, renormalised to  144.00000
     Starting wfc are  172 atomic wfcs
     Checking if some PAW data can be deallocated... 

     total cpu time spent up to now is      146.4 secs

     per-process dynamical memory:   205.0 Mb

     Self-consistent Calculation

     iteration #  1     ecut=    80.00 Ry     beta=0.70
     Davidson diagonalization with overlap
     ethr =  1.00E-02,  avg # of iterations =  2.0

     total cpu time spent up to now is      232.6 secs

     total energy              =    -699.85550689 Ry
     Harris-Foulkes estimate   =    -703.82119761 Ry
     estimated scf accuracy    <     118.85196792 Ry

     iteration #  2     ecut=    80.00 Ry     beta=0.70
     Davidson diagonalization with overlap
     ethr =  1.00E-02,  avg # of iterations =  2.0

     total cpu time spent up to now is      318.3 secs

     total energy              =    -700.27172707 Ry
     Harris-Foulkes estimate   =    -702.85757112 Ry
     estimated scf accuracy    <      27.03143550 Ry

     iteration #  3     ecut=    80.00 Ry     beta=0.70
     Davidson diagonalization with overlap
     ethr =  1.00E-02,  avg # of iterations =  3.0

     total cpu time spent up to now is      404.4 secs

     total energy              =    -700.35714524 Ry
     Harris-Foulkes estimate   =    -703.98682148 Ry
     estimated scf accuracy    <      12.47105422 Ry

     iteration #  4     ecut=    80.00 Ry     beta=0.70
     Davidson diagonalization with overlap
     ethr =  8.66E-03,  avg # of iterations =  2.0

     total cpu time spent up to now is      482.0 secs

     total energy              =    -701.77670041 Ry
     Harris-Foulkes estimate   =    -701.85147126 Ry
     estimated scf accuracy    <       0.31052507 Ry

     iteration #  5     ecut=    80.00 Ry     beta=0.70
     Davidson diagonalization with overlap
     ethr =  2.16E-04,  avg # of iterations =  3.0

     total cpu time spent up to now is      570.4 secs

     total energy              =    -701.88452910 Ry
     Harris-Foulkes estimate   =    -701.89537456 Ry
     estimated scf accuracy    <       0.09101474 Ry

     iteration #  6     ecut=    80.00 Ry     beta=0.70
     Davidson diagonalization with overlap
     ethr =  6.32E-05,  avg # of iterations =  1.0

     total cpu time spent up to now is      641.1 secs

     total energy              =    -701.88357361 Ry
     Harris-Foulkes estimate   =    -701.88663075 Ry
     estimated scf accuracy    <       0.03657721 Ry

     iteration #  7     ecut=    80.00 Ry     beta=0.70
     Davidson diagonalization with overlap
     ethr =  2.54E-05,  avg # of iterations =  2.0

     total cpu time spent up to now is      713.2 secs

     total energy              =    -701.88451675 Ry
     Harris-Foulkes estimate   =    -701.88500358 Ry
     estimated scf accuracy    <       0.00558255 Ry

     iteration #  8     ecut=    80.00 Ry     beta=0.70
     Davidson diagonalization with overlap
     ethr =  3.88E-06,  avg # of iterations =  2.5

     total cpu time spent up to now is      787.9 secs

     total energy              =    -701.88491721 Ry
     Harris-Foulkes estimate   =    -701.88497637 Ry
     estimated scf accuracy    <       0.00057710 Ry

     iteration #  9     ecut=    80.00 Ry     beta=0.70
     Davidson diagonalization with overlap
     ethr =  4.01E-07,  avg # of iterations =  3.0

     total cpu time spent up to now is      872.2 secs

     total energy              =    -701.88501986 Ry
     Harris-Foulkes estimate   =    -701.88503210 Ry
     estimated scf accuracy    <       0.00005502 Ry

     iteration # 10     ecut=    80.00 Ry     beta=0.70
     Davidson diagonalization with overlap
     ethr =  3.82E-08,  avg # of iterations =  4.0

     total cpu time spent up to now is      951.8 secs

     total energy              =    -701.88502521 Ry
     Harris-Foulkes estimate   =    -701.88502921 Ry
     estimated scf accuracy    <       0.00001720 Ry

     iteration # 11     ecut=    80.00 Ry     beta=0.70
     Davidson diagonalization with overlap
     ethr =  1.19E-08,  avg # of iterations =  3.0

     total cpu time spent up to now is     1030.1 secs

     total energy              =    -701.88502715 Ry
     Harris-Foulkes estimate   =    -701.88502731 Ry
     estimated scf accuracy    <       0.00000079 Ry

     iteration # 12     ecut=    80.00 Ry     beta=0.70
     Davidson diagonalization with overlap
     ethr =  5.52E-10,  avg # of iterations =  2.0

     total cpu time spent up to now is     1113.2 secs

     total energy              =    -701.88502723 Ry
     Harris-Foulkes estimate   =    -701.88502728 Ry
     estimated scf accuracy    <       0.00000024 Ry

     iteration # 13     ecut=    80.00 Ry     beta=0.70
     Davidson diagonalization with overlap
     ethr =  1.68E-10,  avg # of iterations =  2.0

     total cpu time spent up to now is     1187.0 secs

     total energy              =    -701.88502725 Ry
     Harris-Foulkes estimate   =    -701.88502725 Ry
     estimated scf accuracy    <       0.00000002 Ry

     iteration # 14     ecut=    80.00 Ry     beta=0.70
     Davidson diagonalization with overlap
     ethr =  1.07E-11,  avg # of iterations =  4.0

     total cpu time spent up to now is     1279.4 secs

     total energy              =    -701.88502725 Ry
     Harris-Foulkes estimate   =    -701.88502725 Ry
     estimated scf accuracy    <       0.00000001 Ry

     iteration # 15     ecut=    80.00 Ry     beta=0.70
     Davidson diagonalization with overlap
     ethr =  7.22E-12,  avg # of iterations =  2.0

     total cpu time spent up to now is     1350.8 secs

     End of self-consistent calculation

          k = 0.0056 0.0110 0.0112 ( 33997 PWs)   bands (ev):

   -19.9037 -19.8618 -19.8312 -19.7995 -17.6681 -17.5842 -17.5673 -17.5292
   -17.1483 -17.0985 -17.0488 -17.0056 -12.4838 -12.4143 -12.3742 -12.2866
    -9.8276  -9.7143  -9.4992  -9.4079  -7.6278  -7.5586  -7.3120  -7.2987
    -6.9731  -6.9394  -6.8756  -6.7800  -5.8136  -5.7445  -5.5125  -5.4627
    -5.3983  -5.3006  -4.8992  -4.8841  -4.6396  -4.5403  -4.4630  -4.3367
    -4.1155  -4.1005  -3.8258  -3.7252  -3.6599  -3.5309  -3.4864  -3.3870
    -2.9916  -2.9705  -2.7997  -2.7800  -2.7077  -2.6500  -2.5938  -2.5321
    -2.2616  -2.1786  -2.0709  -1.8242  -0.3274  -0.2618  -0.2504  -0.2268
    -0.1704  -0.0878  -0.0246   0.0022   0.2553   0.4029   0.5739   0.7351

          k = 0.0056 0.0110 0.0337 ( 33999 PWs)   bands (ev):

   -19.8511 -19.8276 -19.8167 -19.8042 -17.7292 -17.7000 -17.6316 -17.6098
   -17.1109 -17.0936 -17.0159 -17.0022 -12.3625 -12.3360 -12.3185 -12.2785
    -9.5759  -9.5111  -9.4169  -9.3841  -7.4478  -7.3197  -7.1946  -7.1564
    -6.9989  -6.8657  -6.8265  -6.7845  -6.4336  -6.2898  -6.1740  -6.1134
    -5.3093  -5.2608  -5.1310  -5.0665  -4.5891  -4.5342  -4.4724  -4.3358
    -4.0904  -3.9318  -3.8991  -3.8334  -3.6817  -3.6245  -3.5016  -3.4890
    -2.9694  -2.8768  -2.7737  -2.7260  -2.6893  -2.6639  -2.5779  -2.5441
    -2.1895  -2.0615  -2.0274  -1.9583  -0.2748  -0.2508  -0.2105  -0.1879
     0.2468   0.3147   0.3458   0.4171   0.4635   0.4850   0.5654   0.6038

          k = 0.0056 0.0329 0.0112 ( 33993 PWs)   bands (ev):

   -19.8813 -19.8553 -19.8374 -19.8156 -17.6619 -17.6306 -17.5408 -17.5155
   -17.1590 -17.1300 -17.0172 -16.9970 -12.4728 -12.4407 -12.4019 -12.3657
    -9.7022  -9.6508  -9.5143  -9.4780  -7.6042  -7.5696  -7.2864  -7.2616
    -6.9781  -6.8696  -6.7953  -6.7483  -5.7579  -5.6680  -5.5961  -5.4861
    -5.4170  -5.3397  -4.9287  -4.8325  -4.5660  -4.5063  -4.4814  -4.3598
    -4.1606  -4.1404  -3.9331  -3.8264  -3.6832  -3.5330  -3.4790  -3.4161
    -3.0069  -2.9546  -2.7973  -2.7606  -2.6765  -2.6230  -2.5825  -2.5343
    -2.2472  -2.2001  -2.0448  -1.9567  -0.3055  -0.2782  -0.2502  -0.2457
    -0.1346  -0.1145  -0.0312  -0.0238   0.3391   0.3909   0.6190   0.6712

          k = 0.0056 0.0329 0.0337 ( 33993 PWs)   bands (ev):

   -19.8427 -19.8291 -19.8152 -19.8043 -17.7616 -17.7507 -17.5702 -17.5574
   -17.1658 -17.1524 -16.9736 -16.9650 -12.3800 -12.3657 -12.3450 -12.3293
    -9.4914  -9.4600  -9.4044  -9.3927  -7.4061  -7.3387  -7.1651  -7.1531
    -6.9605  -6.8357  -6.7828  -6.7397  -6.4049  -6.2761  -6.2132  -6.1307
    -5.3683  -5.3531  -5.1723  -5.0676  -4.4508  -4.4124  -4.3284  -4.2505
    -4.1337  -4.0735  -3.9152  -3.8087  -3.7868  -3.7447  -3.5082  -3.4744
    -2.9490  -2.8590  -2.7918  -2.7768  -2.7241  -2.7026  -2.5933  -2.5429
    -2.1874  -2.1237  -2.0053  -1.9670  -0.2853  -0.2759  -0.2287  -0.2093
     0.2052   0.2242   0.4227   0.4497   0.4803   0.4934   0.5794   0.6070

          k = 0.0169 0.0110 0.0112 ( 33970 PWs)   bands (ev):

   -19.8949 -19.8789 -19.8171 -19.8052 -17.6505 -17.6027 -17.5718 -17.5289
   -17.1377 -17.0943 -17.0498 -17.0146 -12.4713 -12.4472 -12.3361 -12.3044
    -9.8005  -9.7553  -9.4646  -9.4286  -7.6099  -7.5801  -7.3035  -7.2960
    -6.9464  -6.9107  -6.8970  -6.8426  -5.7738  -5.7322  -5.5133  -5.4592
    -5.3954  -5.3478  -4.8778  -4.8329  -4.6731  -4.6069  -4.4087  -4.3724
    -4.1021  -4.0796  -3.8585  -3.7495  -3.6068  -3.5636  -3.4591  -3.3912
    -2.9913  -2.9677  -2.8105  -2.7893  -2.6939  -2.6388  -2.6003  -2.5699
    -2.2370  -2.2077  -1.9735  -1.8771  -0.3262  -0.2998  -0.2449  -0.2290
    -0.1155  -0.0710  -0.0481  -0.0169   0.2848   0.3404   0.6399   0.7011

          k = 0.0169 0.0110 0.0337 ( 33993 PWs)   bands (ev):

   -19.8469 -19.8353 -19.8132 -19.8042 -17.7210 -17.6936 -17.6446 -17.6156
   -17.1059 -17.0791 -17.0280 -17.0054 -12.3585 -12.3481 -12.3025 -12.2865
    -9.5601  -9.5340  -9.4034  -9.3906  -7.4177  -7.3651  -7.1636  -7.1400
    -7.0085  -6.9313  -6.8129  -6.7744  -6.4013  -6.3070  -6.1676  -6.1169
    -5.3113  -5.2590  -5.1285  -5.0397  -4.6153  -4.4952  -4.4824  -4.3757
    -4.0853  -3.9741  -3.9003  -3.7876  -3.6624  -3.6003  -3.5432  -3.5066
    -2.9511  -2.8777  -2.7660  -2.7419  -2.6991  -2.6412  -2.6109  -2.5226
    -2.1689  -2.0894  -2.0076  -1.9602  -0.2713  -0.2407  -0.2209  -0.1967
     0.2558   0.3223   0.3556   0.4089   0.4546   0.4677   0.5775   0.6016

          k = 0.0169 0.0329 0.0112 ( 33976 PWs)   bands (ev):

   -19.8767 -19.8647 -19.8296 -19.8186 -17.6547 -17.6177 -17.5686 -17.5153
   -17.1640 -17.0903 -17.0480 -16.9936 -12.4662 -12.4533 -12.3884 -12.3732
    -9.6891  -9.6682  -9.5014  -9.4865  -7.6004  -7.5692  -7.2845  -7.2648
    -6.9448  -6.8900  -6.8168  -6.7587  -5.7365  -5.6503  -5.5764  -5.5107
    -5.4173  -5.3564  -4.9050  -4.8282  -4.5844  -4.5121  -4.4735  -4.4029
    -4.1543  -4.0872  -4.0034  -3.7795  -3.6626  -3.5632  -3.5020  -3.4060
    -2.9886  -2.9609  -2.7682  -2.7362  -2.6784  -2.6501  -2.6194  -2.5269
    -2.2281  -2.2020  -2.0456  -1.9626  -0.3069  -0.2771  -0.2473  -0.2288
    -0.1510  -0.0977  -0.0496  -0.0248   0.3454   0.3752   0.6311   0.6657

          k = 0.0169 0.0329 0.0337 ( 34024 PWs)   bands (ev):

   -19.8427 -19.8256 -19.8201 -19.8029 -17.7585 -17.7470 -17.5806 -17.5596
   -17.1684 -17.1354 -16.9845 -16.9627 -12.3787 -12.3672 -12.3439 -12.3302
    -9.4847  -9.4685  -9.4018  -9.3935  -7.3959  -7.3421  -7.1591  -7.1507
    -6.9433  -6.8891  -6.7934  -6.7232  -6.4078  -6.2768  -6.2042  -6.1301
    -5.3382  -5.3114  -5.1761  -5.1056  -4.5154  -4.4701  -4.2841  -4.1871
    -4.1350  -4.0297  -3.9614  -3.8339  -3.7953  -3.6928  -3.5490  -3.4618
    -2.9478  -2.8292  -2.7991  -2.7675  -2.7467  -2.7124  -2.6207  -2.5116
    -2.1791  -2.1132  -2.0325  -1.9540  -0.2918  -0.2700  -0.2308  -0.2059
     0.2019   0.2250   0.4328   0.4593   0.4640   0.5022   0.5519   0.6208
 TIME (initial):        0.0
* Atoms contributing density to the main cell
  Number of atoms:   17836
 
 TIME (set up the environment):        0.1
 DOCALC: T F T T
 ESAVE:       0.000000000000       0.000000000000       0.000000000000
* XDM: using PAW all-electron density reconstruction? T
 TIME (promolecular grid):       67.4
 TIME (calculation of b grid):       69.1
 TIME (calculation of volumes and moments):      476.4
 
+ Volume and moments
# All results in atomic units.
# i              V                  Vfree                 M1                  M2                  M3
  1        32.5222292405        39.0349749523         3.6547443499        49.0660105153       925.2543523133
  2        32.5222292405        39.0349749523         3.6547443499        49.0660105153       925.2543523133
  3        32.5222292405        39.0349749523         3.6547443499        49.0660105153       925.2543523133
  4        32.5222292405        39.0349749523         3.6547443499        49.0660105153       925.2543523133
  5        32.2463039466        39.0349749523         3.3716673036        46.1099942432       905.1835734253
  6        32.2463039466        39.0349749523         3.3716673036        46.1099942432       905.1835734253
  7        32.2463039466        39.0349749523         3.3716673036        46.1099942432       905.1835734253
  8        32.2463039466        39.0349749523         3.3716673036        46.1099942432       905.1835734253
  9        31.7765643998        39.0349749523         3.9790263641        51.3771589424       912.2510806737
 10        31.7765643998        39.0349749523         3.9790263641        51.3771589424       912.2510806736
 11        31.7765643998        39.0349749523         3.9790263641        51.3771589424       912.2510806736
 12        31.7765643998        39.0349749523         3.9790263641        51.3771589424       912.2510806736
 13        24.6924613418        30.0572485474         3.6699306108        36.6323035758       516.9301342956
 14        24.6924613418        30.0572485474         3.6699306108        36.6323035758       516.9301342956
 15        24.6924613418        30.0572485474         3.6699306108        36.6323035758       516.9301342956
 16        24.6924613418        30.0572485474         3.6699306108        36.6323035758       516.9301342956
 17        21.5019279309        23.7788846669         4.6222481894        34.0057846796       329.9811924467
 18        21.5019279309        23.7788846669         4.6222481894        34.0057846796       329.9811924467
 19        21.5019279309        23.7788846669         4.6222481894        34.0057846796       329.9811924467
 20        21.5019279309        23.7788846669         4.6222481894        34.0057846796       329.9811924467
 21        21.1309374332        23.7788846669         4.3845859909        32.2464643559       319.8011280941
 22        21.1309374332        23.7788846669         4.3845859909        32.2464643559       319.8011280941
 23        21.1309374332        23.7788846669         4.3845859909        32.2464643559       319.8011280941
 24        21.1309374332        23.7788846669         4.3845859909        32.2464643559       319.8011280941
 25         8.0122203159        10.4882987305         1.3908650640        13.5819920749       267.3849531501
 26         8.0122203159        10.4882987305         1.3908650640        13.5819920749       267.3849531501
 27         8.0122203159        10.4882987305         1.3908650640        13.5819920749       267.3849531500
 28         8.0122203159        10.4882987305         1.3908650640        13.5819920749       267.3849531500
 29         7.9552669827        10.4882987305         1.3479568768        13.1185176468       263.5655182720
 30         7.9552669827        10.4882987305         1.3479568768        13.1185176468       263.5655182720
 31         7.9552669827        10.4882987305         1.3479568768        13.1185176468       263.5655182720
 32         7.9552669827        10.4882987305         1.3479568768        13.1185176468       263.5655182720
 33         8.0023590023        10.4882987305         1.3489449805        13.1711257147       265.4424643677
 34         8.0023590023        10.4882987305         1.3489449805        13.1711257147       265.4424643677
 35         8.0023590023        10.4882987305         1.3489449805        13.1711257147       265.4424643677
 36         8.0023590023        10.4882987305         1.3489449805        13.1711257147       265.4424643677
 37         7.8496991040        10.4882987305         1.4410034593        12.7794906323       257.3180893203
 38         7.8496991040        10.4882987305         1.4410034593        12.7794906323       257.3180893203
 39         7.8496991040        10.4882987305         1.4410034593        12.7794906323       257.3180893203
 40         7.8496991040        10.4882987305         1.4410034593        12.7794906323       257.3180893203
 41         7.6728451707        10.4882987305         1.4950814494        13.2603580658       260.6976219510
 42         7.6728451707        10.4882987305         1.4950814494        13.2603580658       260.6976219510
 43         7.6728451707        10.4882987305         1.4950814494        13.2603580658       260.6976219510
 44         7.6728451707        10.4882987305         1.4950814494        13.2603580658       260.6976219510
 45         7.8435727940        10.4882987305         1.5178485020        13.5925035253       263.0141473165
 46         7.8435727940        10.4882987305         1.5178485020        13.5925035253       263.0141473165
 47         7.8435727940        10.4882987305         1.5178485020        13.5925035253       263.0141473165
 48         7.8435727940        10.4882987305         1.5178485020        13.5925035253       263.0141473165
 49         7.7301902149        10.4882987305         1.5116300392        13.4362609353       262.0439060054
 50         7.7301902149        10.4882987305         1.5116300392        13.4362609353       262.0439060054
 51         7.7301902149        10.4882987305         1.5116300392        13.4362609353       262.0439060054
 52         7.7301902149        10.4882987305         1.5116300392        13.4362609353       262.0439060054
 
+ Dispersion coefficients
# All results in atomic units.
# i   j              C6                  C8                  C10                   Rc                  Rvdw
  1   1        18.0826753011       728.2955945954     32000.2352892538         6.4869591513         6.8877763186
  2   1        18.0826753011       728.2955945954     32000.2352892542         6.4869591513         6.8877763186
  2   2        18.0826753011       728.2955945954     32000.2352892546         6.4869591513         6.8877763186
  3   1        18.0826753011       728.2955945954     32000.2352892540         6.4869591513         6.8877763186
  3   2        18.0826753011       728.2955945954     32000.2352892545         6.4869591513         6.8877763186
  3   3        18.0826753011       728.2955945954     32000.2352892543         6.4869591513         6.8877763186
  4   1        18.0826753011       728.2955945954     32000.2352892538         6.4869591513         6.8877763186
  4   2        18.0826753011       728.2955945954     32000.2352892543         6.4869591513         6.8877763186
  4   3        18.0826753011       728.2955945954     32000.2352892541         6.4869591513         6.8877763186
  4   4        18.0826753011       728.2955945954     32000.2352892539         6.4869591513         6.8877763186
  5   1        17.2832028237       702.5885588163     31358.4419446657         6.5277203422         6.8933198406
  5   2        17.2832028237       702.5885588163     31358.4419446661         6.5277203422         6.8933198406
  5   3        17.2832028237       702.5885588163     31358.4419446660         6.5277203422         6.8933198406
  5   4        17.2832028237       702.5885588163     31358.4419446658         6.5277203422         6.8933198406
  5   5        16.5405532432       678.6121637801     30755.1318612508         6.5679753058         6.8987945157
  6   1        17.2832028237       702.5885588163     31358.4419446640         6.5277203422         6.8933198406
  6   2        17.2832028237       702.5885588163     31358.4419446644         6.5277203422         6.8933198406
  6   3        17.2832028237       702.5885588163     31358.4419446643         6.5277203422         6.8933198406
  6   4        17.2832028237       702.5885588163     31358.4419446640         6.5277203422         6.8933198406
  6   5        16.5405532432       678.6121637801     30755.1318612491         6.5679753058         6.8987945157
  6   6        16.5405532432       678.6121637801     30755.1318612473         6.5679753058         6.8987945157
  7   1        17.2832028237       702.5885588163     31358.4419446642         6.5277203422         6.8933198406
  7   2        17.2832028237       702.5885588163     31358.4419446646         6.5277203422         6.8933198406
  7   3        17.2832028237       702.5885588163     31358.4419446644         6.5277203422         6.8933198406
  7   4        17.2832028237       702.5885588163     31358.4419446642         6.5277203422         6.8933198406
  7   5        16.5405532432       678.6121637801     30755.1318612492         6.5679753058         6.8987945157
  7   6        16.5405532432       678.6121637801     30755.1318612475         6.5679753058         6.8987945157
  7   7        16.5405532432       678.6121637801     30755.1318612477         6.5679753058         6.8987945157
  8   1        17.2832028237       702.5885588162     31358.4419446629         6.5277203422         6.8933198406
  8   2        17.2832028237       702.5885588162     31358.4419446633         6.5277203422         6.8933198406
  8   3        17.2832028237       702.5885588162     31358.4419446632         6.5277203422         6.8933198406
  8   4        17.2832028237       702.5885588162     31358.4419446629         6.5277203422         6.8933198406
  8   5        16.5405532432       678.6121637801     30755.1318612480         6.5679753058         6.8987945157
  8   6        16.5405532432       678.6121637801     30755.1318612462         6.5679753058         6.8987945157
  8   7        16.5405532432       678.6121637801     30755.1318612464         6.5679753058         6.8987945157
  8   8        16.5405532432       678.6121637800     30755.1318612451         6.5679753058         6.8987945157
  9   1        18.6230410552       735.7205017081     31527.2979980868         6.4153277787         6.8780344520
  9   2        18.6230410552       735.7205017081     31527.2979980873         6.4153277787         6.8780344520
  9   3        18.6230410552       735.7205017081     31527.2979980871         6.4153277787         6.8780344520
  9   4        18.6230410552       735.7205017081     31527.2979980869         6.4153277787         6.8780344520
  9   5        17.7650782495       708.4993205995     30859.8006984740         6.4569406453         6.8836938018
  9   6        17.7650782495       708.4993205994     30859.8006984724         6.4569406453         6.8836938018
  9   7        17.7650782495       708.4993205994     30859.8006984726         6.4569406453         6.8836938018
  9   8        17.7650782495       708.4993205994     30859.8006984714         6.4569406453         6.8836938018
  9   9        19.2357503173       745.1155968833     31109.6273720923         6.3423070488         6.8681036327
 10   1        18.6230410552       735.7205017081     31527.2979980875         6.4153277787         6.8780344520
 10   2        18.6230410552       735.7205017081     31527.2979980879         6.4153277787         6.8780344520
 10   3        18.6230410552       735.7205017081     31527.2979980878         6.4153277787         6.8780344520
 10   4        18.6230410552       735.7205017081     31527.2979980876         6.4153277787         6.8780344520
 10   5        17.7650782495       708.4993205995     30859.8006984747         6.4569406453         6.8836938018
 10   6        17.7650782495       708.4993205994     30859.8006984731         6.4569406453         6.8836938018
 10   7        17.7650782495       708.4993205994     30859.8006984732         6.4569406453         6.8836938018
 10   8        17.7650782495       708.4993205994     30859.8006984720         6.4569406453         6.8836938018
 10   9        19.2357503173       745.1155968833     31109.6273720929         6.3423070488         6.8681036327
 10  10        19.2357503173       745.1155968834     31109.6273720936         6.3423070488         6.8681036327
 11   1        18.6230410552       735.7205017081     31527.2979980869         6.4153277787         6.8780344520
 11   2        18.6230410552       735.7205017081     31527.2979980873         6.4153277787         6.8780344520
 11   3        18.6230410552       735.7205017081     31527.2979980872         6.4153277787         6.8780344520
 11   4        18.6230410552       735.7205017081     31527.2979980869         6.4153277787         6.8780344520
 11   5        17.7650782495       708.4993205995     30859.8006984741         6.4569406453         6.8836938018
 11   6        17.7650782495       708.4993205994     30859.8006984725         6.4569406453         6.8836938018
 11   7        17.7650782495       708.4993205994     30859.8006984727         6.4569406453         6.8836938018
 11   8        17.7650782495       708.4993205994     30859.8006984714         6.4569406453         6.8836938018
 11   9        19.2357503173       745.1155968833     31109.6273720923         6.3423070488         6.8681036327
 11  10        19.2357503173       745.1155968834     31109.6273720930         6.3423070488         6.8681036327
 11  11        19.2357503173       745.1155968833     31109.6273720923         6.3423070488         6.8681036327
 12   1        18.6230410552       735.7205017081     31527.2979980865         6.4153277787         6.8780344520
 12   2        18.6230410552       735.7205017081     31527.2979980869         6.4153277787         6.8780344520
 12   3        18.6230410552       735.7205017081     31527.2979980867         6.4153277787         6.8780344520
 12   4        18.6230410552       735.7205017081     31527.2979980865         6.4153277787         6.8780344520
 12   5        17.7650782495       708.4993205994     30859.8006984737         6.4569406453         6.8836938018
 12   6        17.7650782495       708.4993205994     30859.8006984720         6.4569406453         6.8836938018
 12   7        17.7650782495       708.4993205994     30859.8006984722         6.4569406453         6.8836938018
 12   8        17.7650782495       708.4993205994     30859.8006984710         6.4569406453         6.8836938018
 12   9        19.2357503173       745.1155968833     31109.6273720919         6.3423070488         6.8681036327
 12  10        19.2357503173       745.1155968833     31109.6273720926         6.3423070488         6.8681036327
 12  11        19.2357503173       745.1155968833     31109.6273720920         6.3423070488         6.8681036327
 12  12        19.2357503173       745.1155968833     31109.6273720916         6.3423070488         6.8681036327
 13   1        13.8112875574       484.9219358916     18657.3159601163         6.0635854677         6.8301974977
 13   2        13.8112875574       484.9219358916     18657.3159601166         6.0635854677         6.8301974977
 13   3        13.8112875574       484.9219358916     18657.3159601165         6.0635854677         6.8301974977
 13   4        13.8112875574       484.9219358915     18657.3159601164         6.0635854677         6.8301974977
 13   5        13.0877729176       464.4353467741     18217.8945091249         6.1094052165         6.8364289835
 13   6        13.0877729176       464.4353467741     18217.8945091240         6.1094052165         6.8364289835
 13   7        13.0877729176       464.4353467741     18217.8945091241         6.1094052165         6.8364289835
 13   8        13.0877729176       464.4353467741     18217.8945091234         6.1094052165         6.8364289835
 13   9        14.4104573401       494.8637966024     18467.7867005866         5.9840726639         6.8193837564
 13  10        14.4104573401       494.8637966024     18467.7867005870         5.9840726639         6.8193837564
 13  11        14.4104573401       494.8637966024     18467.7867005865         5.9840726639         6.8193837564
 13  12        14.4104573401       494.8637966024     18467.7867005865         5.9840726639         6.8193837564
 13  13        11.1900572680       335.0888218453     10987.4057924731         5.5987388022         6.7669783512
 14   1        13.8112875574       484.9219358915     18657.3159601161         6.0635854677         6.8301974977
 14   2        13.8112875574       484.9219358915     18657.3159601164         6.0635854677         6.8301974977
 14   3        13.8112875574       484.9219358916     18657.3159601163         6.0635854677         6.8301974977
 14   4        13.8112875574       484.9219358915     18657.3159601162         6.0635854677         6.8301974977
 14   5        13.0877729176       464.4353467741     18217.8945091247         6.1094052165         6.8364289835
 14   6        13.0877729176       464.4353467741     18217.8945091238         6.1094052165         6.8364289835
 14   7        13.0877729175       464.4353467741     18217.8945091239         6.1094052165         6.8364289835
 14   8        13.0877729176       464.4353467741     18217.8945091232         6.1094052165         6.8364289835
 14   9        14.4104573401       494.8637966024     18467.7867005864         5.9840726639         6.8193837564
 14  10        14.4104573401       494.8637966024     18467.7867005868         5.9840726639         6.8193837564
 14  11        14.4104573401       494.8637966024     18467.7867005863         5.9840726639         6.8193837564
 14  12        14.4104573401       494.8637966024     18467.7867005863         5.9840726639         6.8193837564
 14  13        11.1900572680       335.0888218453     10987.4057924730         5.5987388022         6.7669783512
 14  14        11.1900572680       335.0888218453     10987.4057924729         5.5987388022         6.7669783512
 15   1        13.8112875574       484.9219358916     18657.3159601161         6.0635854677         6.8301974977
 15   2        13.8112875574       484.9219358915     18657.3159601164         6.0635854677         6.8301974977
 15   3        13.8112875574       484.9219358916     18657.3159601163         6.0635854677         6.8301974977
 15   4        13.8112875574       484.9219358915     18657.3159601162         6.0635854677         6.8301974977
 15   5        13.0877729176       464.4353467741     18217.8945091247         6.1094052165         6.8364289835
 15   6        13.0877729176       464.4353467741     18217.8945091238         6.1094052165         6.8364289835
 15   7        13.0877729176       464.4353467741     18217.8945091239         6.1094052165         6.8364289835
 15   8        13.0877729176       464.4353467741     18217.8945091232         6.1094052165         6.8364289835
 15   9        14.4104573401       494.8637966024     18467.7867005864         5.9840726639         6.8193837564
 15  10        14.4104573401       494.8637966024     18467.7867005868         5.9840726639         6.8193837564
 15  11        14.4104573401       494.8637966024     18467.7867005863         5.9840726639         6.8193837564
 15  12        14.4104573401       494.8637966024     18467.7867005863         5.9840726639         6.8193837564
 15  13        11.1900572680       335.0888218453     10987.4057924730         5.5987388022         6.7669783512
 15  14        11.1900572680       335.0888218453     10987.4057924729         5.5987388022         6.7669783512
 15  15        11.1900572680       335.0888218453     10987.4057924729         5.5987388022         6.7669783512
 16   1        13.8112875574       484.9219358915     18657.3159601159         6.0635854677         6.8301974977
 16   2        13.8112875574       484.9219358915     18657.3159601162         6.0635854677         6.8301974977
 16   3        13.8112875574       484.9219358915     18657.3159601161         6.0635854677         6.8301974977
 16   4        13.8112875574       484.9219358915     18657.3159601160         6.0635854677         6.8301974977
 16   5        13.0877729176       464.4353467741     18217.8945091245         6.1094052165         6.8364289835
 16   6        13.0877729176       464.4353467741     18217.8945091237         6.1094052165         6.8364289835
 16   7        13.0877729175       464.4353467741     18217.8945091237         6.1094052165         6.8364289835
 16   8        13.0877729175       464.4353467741     18217.8945091231         6.1094052165         6.8364289835
 16   9        14.4104573401       494.8637966024     18467.7867005863         5.9840726639         6.8193837564
 16  10        14.4104573401       494.8637966024     18467.7867005866         5.9840726639         6.8193837564
 16  11        14.4104573401       494.8637966024     18467.7867005862         5.9840726639         6.8193837564
 16  12        14.4104573401       494.8637966024     18467.7867005862         5.9840726639         6.8193837564
 16  13        11.1900572680       335.0888218453     10987.4057924729         5.5987388022         6.7669783512
 16  14        11.1900572680       335.0888218453     10987.4057924728         5.5987388022         6.7669783512
 16  15        11.1900572680       335.0888218453     10987.4057924728         5.5987388022         6.7669783512
 16  16        11.1900572680       335.0888218453     10987.4057924728         5.5987388022         6.7669783512
 17   1        12.8579940137       400.8274840289     13680.1647213901         5.7122052056         6.7824097820
 17   2        12.8579940137       400.8274840289     13680.1647213904         5.7122052056         6.7824097820
 17   3        12.8579940137       400.8274840289     13680.1647213903         5.7122052056         6.7824097820
 17   4        12.8579940137       400.8274840289     13680.1647213902         5.7122052056         6.7824097820
 17   5        12.0986662116       381.7015017809     13336.1820988051         5.7632536293         6.7893523677
 17   6        12.0986662116       381.7015017809     13336.1820988046         5.7632536293         6.7893523677
 17   7        12.0986662116       381.7015017809     13336.1820988046         5.7632536293         6.7893523677
 17   8        12.0986662116       381.7015017809     13336.1820988042         5.7632536293         6.7893523677
 17   9        13.5631552116       412.3668195539     13566.9668321779         5.6245381155         6.7704870578
 17  10        13.5631552116       412.3668195539     13566.9668321781         5.6245381155         6.7704870578
 17  11        13.5631552116       412.3668195539     13566.9668321778         5.6245381155         6.7704870578
 17  12        13.5631552116       412.3668195539     13566.9668321779         5.6245381155         6.7704870578
 17  13        10.9703454462       285.3176586440      8040.3816764420         5.2038205910         6.7132694745
 17  14        10.9703454462       285.3176586440      8040.3816764419         5.2038205910         6.7132694745
 17  15        10.9703454462       285.3176586440      8040.3816764420         5.2038205910         6.7132694745
 17  16        10.9703454462       285.3176586440      8040.3816764419         5.2038205910         6.7132694745
 17  17        11.3104572309       249.6324023271      5800.9599592537         4.7591451304         6.6527936118
 18   1        12.8579940137       400.8274840289     13680.1647213900         5.7122052056         6.7824097820
 18   2        12.8579940137       400.8274840289     13680.1647213902         5.7122052056         6.7824097820
 18   3        12.8579940137       400.8274840289     13680.1647213901         5.7122052056         6.7824097820
 18   4        12.8579940137       400.8274840289     13680.1647213901         5.7122052056         6.7824097820
 18   5        12.0986662116       381.7015017809     13336.1820988050         5.7632536293         6.7893523677
 18   6        12.0986662116       381.7015017809     13336.1820988044         5.7632536293         6.7893523677
 18   7        12.0986662116       381.7015017809     13336.1820988044         5.7632536293         6.7893523677
 18   8        12.0986662116       381.7015017809     13336.1820988040         5.7632536293         6.7893523677
 18   9        13.5631552116       412.3668195539     13566.9668321778         5.6245381155         6.7704870578
 18  10        13.5631552116       412.3668195539     13566.9668321780         5.6245381155         6.7704870578
 18  11        13.5631552116       412.3668195539     13566.9668321776         5.6245381155         6.7704870578
 18  12        13.5631552116       412.3668195539     13566.9668321777         5.6245381155         6.7704870578
 18  13        10.9703454462       285.3176586440      8040.3816764419         5.2038205910         6.7132694745
 18  14        10.9703454462       285.3176586440      8040.3816764418         5.2038205910         6.7132694745
 18  15        10.9703454462       285.3176586440      8040.3816764419         5.2038205910         6.7132694745
 18  16        10.9703454462       285.3176586440      8040.3816764418         5.2038205910         6.7132694745
 18  17        11.3104572309       249.6324023271      5800.9599592536         4.7591451304         6.6527936118
 18  18        11.3104572309       249.6324023271      5800.9599592535         4.7591451304         6.6527936118
 19   1        12.8579940137       400.8274840289     13680.1647213906         5.7122052056         6.7824097820
 19   2        12.8579940137       400.8274840289     13680.1647213908         5.7122052056         6.7824097820
 19   3        12.8579940137       400.8274840289     13680.1647213907         5.7122052056         6.7824097820
 19   4        12.8579940137       400.8274840289     13680.1647213907         5.7122052056         6.7824097820
 19   5        12.0986662116       381.7015017809     13336.1820988055         5.7632536293         6.7893523677
 19   6        12.0986662116       381.7015017809     13336.1820988050         5.7632536293         6.7893523677
 19   7        12.0986662116       381.7015017809     13336.1820988050         5.7632536293         6.7893523677
 19   8        12.0986662116       381.7015017809     13336.1820988046         5.7632536293         6.7893523677
 19   9        13.5631552116       412.3668195539     13566.9668321783         5.6245381155         6.7704870578
 19  10        13.5631552116       412.3668195540     13566.9668321785         5.6245381155         6.7704870578
 19  11        13.5631552116       412.3668195539     13566.9668321782         5.6245381155         6.7704870578
 19  12        13.5631552116       412.3668195539     13566.9668321783         5.6245381155         6.7704870578
 19  13        10.9703454462       285.3176586440      8040.3816764422         5.2038205910         6.7132694745
 19  14        10.9703454462       285.3176586440      8040.3816764422         5.2038205910         6.7132694745
 19  15        10.9703454462       285.3176586440      8040.3816764422         5.2038205910         6.7132694745
 19  16        10.9703454462       285.3176586440      8040.3816764421         5.2038205910         6.7132694745
 19  17        11.3104572309       249.6324023271      5800.9599592538         4.7591451304         6.6527936118
 19  18        11.3104572309       249.6324023271      5800.9599592537         4.7591451304         6.6527936118
 19  19        11.3104572309       249.6324023271      5800.9599592539         4.7591451304         6.6527936118
 20   1        12.8579940137       400.8274840289     13680.1647213903         5.7122052056         6.7824097820
 20   2        12.8579940137       400.8274840289     13680.1647213905         5.7122052056         6.7824097820
 20   3        12.8579940137       400.8274840289     13680.1647213904         5.7122052056         6.7824097820
 20   4        12.8579940137       400.8274840289     13680.1647213904         5.7122052056         6.7824097820
 20   5        12.0986662116       381.7015017809     13336.1820988053         5.7632536293         6.7893523677
 20   6        12.0986662116       381.7015017809     13336.1820988047         5.7632536293         6.7893523677
 20   7        12.0986662116       381.7015017809     13336.1820988047         5.7632536293         6.7893523677
 20   8        12.0986662116       381.7015017809     13336.1820988043         5.7632536293         6.7893523677
 20   9        13.5631552116       412.3668195539     13566.9668321781         5.6245381155         6.7704870578
 20  10        13.5631552116       412.3668195539     13566.9668321783         5.6245381155         6.7704870578
 20  11        13.5631552116       412.3668195539     13566.9668321779         5.6245381155         6.7704870578
 20  12        13.5631552116       412.3668195539     13566.9668321780         5.6245381155         6.7704870578
 20  13        10.9703454462       285.3176586440      8040.3816764421         5.2038205910         6.7132694745
 20  14        10.9703454462       285.3176586440      8040.3816764421         5.2038205910         6.7132694745
 20  15        10.9703454462       285.3176586440      8040.3816764421         5.2038205910         6.7132694745
 20  16        10.9703454462       285.3176586440      8040.3816764420         5.2038205910         6.7132694745
 20  17        11.3104572309       249.6324023271      5800.9599592538         4.7591451304         6.6527936118
 20  18        11.3104572309       249.6324023271      5800.9599592537         4.7591451304         6.6527936118
 20  19        11.3104572309       249.6324023271      5800.9599592539         4.7591451304         6.6527936118
 20  20        11.3104572309       249.6324023271      5800.9599592538         4.7591451304         6.6527936118
 21   1        12.5094938840       389.9171378260     13346.3611645920         5.7162350493         6.7829578408
 21   2        12.5094938840       389.9171378260     13346.3611645922         5.7162350493         6.7829578408
 21   3        12.5094938840       389.9171378260     13346.3611645921         5.7162350493         6.7829578408
 21   4        12.5094938840       389.9171378260     13346.3611645921         5.7162350493         6.7829578408
 21   5        11.7767670278       371.5021949579     13016.1411350646         5.7671828420         6.7898867406
 21   6        11.7767670278       371.5021949578     13016.1411350641         5.7671828420         6.7898867406
 21   7        11.7767670278       371.5021949578     13016.1411350641         5.7671828420         6.7898867406
 21   8        11.7767670278       371.5021949578     13016.1411350636         5.7671828420         6.7898867406
 21   9        13.1850239185       400.8214047540     13227.7770756184         5.6287570724         6.7710608359
 21  10        13.1850239185       400.8214047540     13227.7770756186         5.6287570724         6.7710608359
 21  11        13.1850239185       400.8214047540     13227.7770756182         5.6287570724         6.7710608359
 21  12        13.1850239185       400.8214047540     13227.7770756183         5.6287570724         6.7710608359
 21  13        10.6320389671       276.4795110982      7824.2409106662         5.2092012726         6.7140012471
 21  14        10.6320389671       276.4795110982      7824.2409106662         5.2092012726         6.7140012471
 21  15        10.6320389671       276.4795110982      7824.2409106662         5.2092012726         6.7140012471
 21  16        10.6320389671       276.4795110982      7824.2409106661         5.2092012726         6.7140012471
 21  17        10.9186904230       240.9452334195      5632.9948310137         4.7662010387         6.6537532153
 21  18        10.9186904230       240.9452334195      5632.9948310136         4.7662010387         6.6537532153
 21  19        10.9186904230       240.9452334195      5632.9948310138         4.7662010387         6.6537532153
 21  20        10.9186904230       240.9452334195      5632.9948310137         4.7662010387         6.6537532153
 21  21        10.5437926097       232.6331607591      5471.4180153966         4.7732338203         6.6547096736
 22   1        12.5094938840       389.9171378260     13346.3611645920         5.7162350493         6.7829578408
 22   2        12.5094938840       389.9171378260     13346.3611645922         5.7162350493         6.7829578408
 22   3        12.5094938840       389.9171378260     13346.3611645921         5.7162350493         6.7829578408
 22   4        12.5094938840       389.9171378260     13346.3611645921         5.7162350493         6.7829578408
 22   5        11.7767670278       371.5021949579     13016.1411350646         5.7671828420         6.7898867406
 22   6        11.7767670278       371.5021949578     13016.1411350641         5.7671828420         6.7898867406
 22   7        11.7767670278       371.5021949578     13016.1411350641         5.7671828420         6.7898867406
 22   8        11.7767670278       371.5021949578     13016.1411350636         5.7671828420         6.7898867406
 22   9        13.1850239185       400.8214047540     13227.7770756184         5.6287570724         6.7710608359
 22  10        13.1850239185       400.8214047540     13227.7770756186         5.6287570724         6.7710608359
 22  11        13.1850239185       400.8214047540     13227.7770756182         5.6287570724         6.7710608359
 22  12        13.1850239185       400.8214047540     13227.7770756183         5.6287570724         6.7710608359
 22  13        10.6320389671       276.4795110982      7824.2409106662         5.2092012726         6.7140012471
 22  14        10.6320389671       276.4795110982      7824.2409106662         5.2092012726         6.7140012471
 22  15        10.6320389671       276.4795110982      7824.2409106662         5.2092012726         6.7140012471
 22  16        10.6320389671       276.4795110982      7824.2409106661         5.2092012726         6.7140012471
 22  17        10.9186904230       240.9452334195      5632.9948310137         4.7662010387         6.6537532153
 22  18        10.9186904230       240.9452334195      5632.9948310136         4.7662010387         6.6537532153
 22  19        10.9186904230       240.9452334195      5632.9948310138         4.7662010387         6.6537532153
 22  20        10.9186904230       240.9452334195      5632.9948310137         4.7662010387         6.6537532153
 22  21        10.5437926097       232.6331607591      5471.4180153966         4.7732338203         6.6547096736
 22  22        10.5437926097       232.6331607591      5471.4180153966         4.7732338203         6.6547096736
 23   1        12.5094938840       389.9171378260     13346.3611645916         5.7162350493         6.7829578408
 23   2        12.5094938840       389.9171378260     13346.3611645919         5.7162350493         6.7829578408
 23   3        12.5094938840       389.9171378260     13346.3611645918         5.7162350493         6.7829578408
 23   4        12.5094938840       389.9171378260     13346.3611645918         5.7162350493         6.7829578408
 23   5        11.7767670278       371.5021949578     13016.1411350642         5.7671828420         6.7898867406
 23   6        11.7767670278       371.5021949578     13016.1411350637         5.7671828420         6.7898867406
 23   7        11.7767670278       371.5021949578     13016.1411350637         5.7671828420         6.7898867406
 23   8        11.7767670278       371.5021949578     13016.1411350633         5.7671828420         6.7898867406
 23   9        13.1850239185       400.8214047540     13227.7770756181         5.6287570724         6.7710608359
 23  10        13.1850239185       400.8214047540     13227.7770756182         5.6287570724         6.7710608359
 23  11        13.1850239185       400.8214047540     13227.7770756179         5.6287570724         6.7710608359
 23  12        13.1850239185       400.8214047540     13227.7770756180         5.6287570724         6.7710608359
 23  13        10.6320389671       276.4795110982      7824.2409106661         5.2092012726         6.7140012471
 23  14        10.6320389671       276.4795110982      7824.2409106660         5.2092012726         6.7140012471
 23  15        10.6320389671       276.4795110982      7824.2409106661         5.2092012726         6.7140012471
 23  16        10.6320389671       276.4795110982      7824.2409106660         5.2092012726         6.7140012471
 23  17        10.9186904230       240.9452334195      5632.9948310136         4.7662010387         6.6537532153
 23  18        10.9186904230       240.9452334195      5632.9948310135         4.7662010387         6.6537532153
 23  19        10.9186904230       240.9452334195      5632.9948310137         4.7662010387         6.6537532153
 23  20        10.9186904230       240.9452334195      5632.9948310137         4.7662010387         6.6537532153
 23  21        10.5437926097       232.6331607591      5471.4180153966         4.7732338203         6.6547096736
 23  22        10.5437926097       232.6331607591      5471.4180153966         4.7732338203         6.6547096736
 23  23        10.5437926097       232.6331607591      5471.4180153965         4.7732338203         6.6547096736
 24   1        12.5094938840       389.9171378260     13346.3611645920         5.7162350493         6.7829578408
 24   2        12.5094938840       389.9171378260     13346.3611645922         5.7162350493         6.7829578408
 24   3        12.5094938840       389.9171378260     13346.3611645921         5.7162350493         6.7829578408
 24   4        12.5094938840       389.9171378260     13346.3611645921         5.7162350493         6.7829578408
 24   5        11.7767670278       371.5021949579     13016.1411350646         5.7671828420         6.7898867406
 24   6        11.7767670278       371.5021949578     13016.1411350641         5.7671828420         6.7898867406
 24   7        11.7767670278       371.5021949578     13016.1411350641         5.7671828420         6.7898867406
 24   8        11.7767670278       371.5021949578     13016.1411350637         5.7671828420         6.7898867406
 24   9        13.1850239185       400.8214047540     13227.7770756184         5.6287570724         6.7710608359
 24  10        13.1850239185       400.8214047540     13227.7770756186         5.6287570724         6.7710608359
 24  11        13.1850239185       400.8214047540     13227.7770756182         5.6287570724         6.7710608359
 24  12        13.1850239185       400.8214047540     13227.7770756183         5.6287570724         6.7710608359
 24  13        10.6320389671       276.4795110982      7824.2409106662         5.2092012726         6.7140012471
 24  14        10.6320389671       276.4795110982      7824.2409106662         5.2092012726         6.7140012471
 24  15        10.6320389671       276.4795110982      7824.2409106662         5.2092012726         6.7140012471
 24  16        10.6320389671       276.4795110982      7824.2409106662         5.2092012726         6.7140012471
 24  17        10.9186904230       240.9452334195      5632.9948310137         4.7662010387         6.6537532153
 24  18        10.9186904230       240.9452334195      5632.9948310136         4.7662010387         6.6537532153
 24  19        10.9186904230       240.9452334195      5632.9948310138         4.7662010387         6.6537532153
 24  20        10.9186904230       240.9452334195      5632.9948310138         4.7662010387         6.6537532153
 24  21        10.5437926097       232.6331607591      5471.4180153967         4.7732338203         6.6547096736
 24  22        10.5437926097       232.6331607591      5471.4180153967         4.7732338203         6.6547096736
 24  23        10.5437926097       232.6331607591      5471.4180153966         4.7732338203         6.6547096736
 24  24        10.5437926097       232.6331607591      5471.4180153967         4.7732338203         6.6547096736
 25   1         6.5679089631       228.4689704800      9467.2283902888         6.1656083400         6.8440726083
 25   2         6.5679089631       228.4689704800      9467.2283902889         6.1656083400         6.8440726083
 25   3         6.5679089631       228.4689704800      9467.2283902889         6.1656083400         6.8440726083
 25   4         6.5679089631       228.4689704800      9467.2283902888         6.1656083400         6.8440726083
 25   5         6.2672332213       220.3640501691      9290.0018777681         6.2091604457         6.8499956947
 25   6         6.2672332213       220.3640501691      9290.0018777676         6.2091604457         6.8499956947
 25   7         6.2672332213       220.3640501691      9290.0018777676         6.2091604457         6.8499956947
 25   8         6.2672332213       220.3640501691      9290.0018777673         6.2091604457         6.8499956947
 25   9         6.7808861336       230.6565809599      9307.3372408368         6.0904401120         6.8338497293
 25  10         6.7808861336       230.6565809599      9307.3372408370         6.0904401120         6.8338497293
 25  11         6.7808861336       230.6565809599      9307.3372408368         6.0904401120         6.8338497293
 25  12         6.7808861336       230.6565809599      9307.3372408367         6.0904401120         6.8338497293
 25  13         5.0718198761       150.2289492969      5455.1757966483         5.7317412131         6.7850666791
 25  14         5.0718198761       150.2289492969      5455.1757966483         5.7317412131         6.7850666791
 25  15         5.0718198761       150.2289492969      5455.1757966483         5.7317412131         6.7850666791
 25  16         5.0718198761       150.2289492969      5455.1757966482         5.7317412131         6.7850666791
 25  17         4.7653226548       122.3886351851      3950.4663466109         5.3716969404         6.7361006580
 25  18         4.7653226548       122.3886351851      3950.4663466108         5.3716969404         6.7361006580
 25  19         4.7653226548       122.3886351851      3950.4663466110         5.3716969404         6.7361006580
 25  20         4.7653226548       122.3886351851      3950.4663466109         5.3716969404         6.7361006580
 25  21         4.6330588555       118.9744918752      3854.6916509842         5.3767417749         6.7367867555
 25  22         4.6330588555       118.9744918752      3854.6916509842         5.3767417749         6.7367867555
 25  23         4.6330588555       118.9744918752      3854.6916509841         5.3767417749         6.7367867555
 25  24         4.6330588555       118.9744918752      3854.6916509842         5.3767417749         6.7367867555
 25  25         2.3905346064        70.0317153407      2795.6775387663         5.8595463235         6.8024481741
 26   1         6.5679089631       228.4689704800      9467.2283902890         6.1656083400         6.8440726083
 26   2         6.5679089631       228.4689704800      9467.2283902891         6.1656083400         6.8440726083
 26   3         6.5679089631       228.4689704800      9467.2283902890         6.1656083400         6.8440726083
 26   4         6.5679089631       228.4689704800      9467.2283902890         6.1656083400         6.8440726083
 26   5         6.2672332213       220.3640501691      9290.0018777683         6.2091604457         6.8499956947
 26   6         6.2672332213       220.3640501691      9290.0018777678         6.2091604457         6.8499956947
 26   7         6.2672332213       220.3640501691      9290.0018777678         6.2091604457         6.8499956947
 26   8         6.2672332213       220.3640501691      9290.0018777674         6.2091604457         6.8499956947
 26   9         6.7808861336       230.6565809599      9307.3372408370         6.0904401120         6.8338497293
 26  10         6.7808861336       230.6565809599      9307.3372408372         6.0904401120         6.8338497293
 26  11         6.7808861336       230.6565809599      9307.3372408370         6.0904401120         6.8338497293
 26  12         6.7808861336       230.6565809599      9307.3372408369         6.0904401120         6.8338497293
 26  13         5.0718198761       150.2289492969      5455.1757966484         5.7317412131         6.7850666791
 26  14         5.0718198761       150.2289492969      5455.1757966484         5.7317412131         6.7850666791
 26  15         5.0718198761       150.2289492969      5455.1757966484         5.7317412131         6.7850666791
 26  16         5.0718198761       150.2289492969      5455.1757966483         5.7317412131         6.7850666791
 26  17         4.7653226548       122.3886351851      3950.4663466110         5.3716969404         6.7361006580
 26  18         4.7653226548       122.3886351851      3950.4663466109         5.3716969404         6.7361006580
 26  19         4.7653226548       122.3886351851      3950.4663466111         5.3716969404         6.7361006580
 26  20         4.7653226548       122.3886351851      3950.4663466110         5.3716969404         6.7361006580
 26  21         4.6330588555       118.9744918752      3854.6916509843         5.3767417749         6.7367867555
 26  22         4.6330588555       118.9744918752      3854.6916509843         5.3767417749         6.7367867555
 26  23         4.6330588555       118.9744918752      3854.6916509842         5.3767417749         6.7367867555
 26  24         4.6330588555       118.9744918752      3854.6916509843         5.3767417749         6.7367867555
 26  25         2.3905346064        70.0317153407      2795.6775387664         5.8595463235         6.8024481741
 26  26         2.3905346064        70.0317153407      2795.6775387664         5.8595463235         6.8024481741
 27   1         6.5679089631       228.4689704800      9467.2283902889         6.1656083400         6.8440726083
 27   2         6.5679089631       228.4689704800      9467.2283902890         6.1656083400         6.8440726083
 27   3         6.5679089631       228.4689704800      9467.2283902890         6.1656083400         6.8440726083
 27   4         6.5679089631       228.4689704800      9467.2283902889         6.1656083400         6.8440726083
 27   5         6.2672332213       220.3640501691      9290.0018777682         6.2091604457         6.8499956947
 27   6         6.2672332213       220.3640501691      9290.0018777677         6.2091604457         6.8499956947
 27   7         6.2672332213       220.3640501691      9290.0018777677         6.2091604457         6.8499956947
 27   8         6.2672332213       220.3640501691      9290.0018777674         6.2091604457         6.8499956947
 27   9         6.7808861336       230.6565809599      9307.3372408369         6.0904401120         6.8338497293
 27  10         6.7808861336       230.6565809599      9307.3372408371         6.0904401120         6.8338497293
 27  11         6.7808861336       230.6565809599      9307.3372408369         6.0904401120         6.8338497293
 27  12         6.7808861336       230.6565809599      9307.3372408368         6.0904401120         6.8338497293
 27  13         5.0718198761       150.2289492969      5455.1757966483         5.7317412131         6.7850666791
 27  14         5.0718198761       150.2289492969      5455.1757966483         5.7317412131         6.7850666791
 27  15         5.0718198761       150.2289492969      5455.1757966483         5.7317412131         6.7850666791
 27  16         5.0718198761       150.2289492969      5455.1757966482         5.7317412131         6.7850666791
 27  17         4.7653226548       122.3886351851      3950.4663466109         5.3716969404         6.7361006580
 27  18         4.7653226548       122.3886351851      3950.4663466108         5.3716969404         6.7361006580
 27  19         4.7653226548       122.3886351851      3950.4663466110         5.3716969404         6.7361006580
 27  20         4.7653226548       122.3886351851      3950.4663466109         5.3716969404         6.7361006580
 27  21         4.6330588555       118.9744918752      3854.6916509842         5.3767417749         6.7367867555
 27  22         4.6330588555       118.9744918752      3854.6916509842         5.3767417749         6.7367867555
 27  23         4.6330588555       118.9744918752      3854.6916509841         5.3767417749         6.7367867555
 27  24         4.6330588555       118.9744918752      3854.6916509842         5.3767417749         6.7367867555
 27  25         2.3905346064        70.0317153407      2795.6775387663         5.8595463235         6.8024481741
 27  26         2.3905346064        70.0317153407      2795.6775387664         5.8595463235         6.8024481741
 27  27         2.3905346064        70.0317153407      2795.6775387664         5.8595463235         6.8024481741
 28   1         6.5679089631       228.4689704800      9467.2283902890         6.1656083400         6.8440726083
 28   2         6.5679089631       228.4689704800      9467.2283902892         6.1656083400         6.8440726083
 28   3         6.5679089631       228.4689704800      9467.2283902891         6.1656083400         6.8440726083
 28   4         6.5679089631       228.4689704800      9467.2283902891         6.1656083400         6.8440726083
 28   5         6.2672332213       220.3640501691      9290.0018777683         6.2091604457         6.8499956947
 28   6         6.2672332213       220.3640501691      9290.0018777678         6.2091604457         6.8499956947
 28   7         6.2672332213       220.3640501691      9290.0018777678         6.2091604457         6.8499956947
 28   8         6.2672332213       220.3640501691      9290.0018777675         6.2091604457         6.8499956947
 28   9         6.7808861336       230.6565809599      9307.3372408371         6.0904401120         6.8338497293
 28  10         6.7808861336       230.6565809599      9307.3372408372         6.0904401120         6.8338497293
 28  11         6.7808861336       230.6565809599      9307.3372408370         6.0904401120         6.8338497293
 28  12         6.7808861336       230.6565809599      9307.3372408369         6.0904401120         6.8338497293
 28  13         5.0718198761       150.2289492969      5455.1757966485         5.7317412131         6.7850666791
 28  14         5.0718198761       150.2289492969      5455.1757966484         5.7317412131         6.7850666791
 28  15         5.0718198761       150.2289492969      5455.1757966484         5.7317412131         6.7850666791
 28  16         5.0718198761       150.2289492969      5455.1757966484         5.7317412131         6.7850666791
 28  17         4.7653226548       122.3886351851      3950.4663466110         5.3716969404         6.7361006580
 28  18         4.7653226548       122.3886351851      3950.4663466109         5.3716969404         6.7361006580
 28  19         4.7653226548       122.3886351851      3950.4663466111         5.3716969404         6.7361006580
 28  20         4.7653226548       122.3886351851      3950.4663466110         5.3716969404         6.7361006580
 28  21         4.6330588555       118.9744918752      3854.6916509843         5.3767417749         6.7367867555
 28  22         4.6330588555       118.9744918752      3854.6916509843         5.3767417749         6.7367867555
 28  23         4.6330588555       118.9744918752      3854.6916509842         5.3767417749         6.7367867555
 28  24         4.6330588555       118.9744918752      3854.6916509843         5.3767417749         6.7367867555
 28  25         2.3905346064        70.0317153407      2795.6775387664         5.8595463235         6.8024481741
 28  26         2.3905346064        70.0317153407      2795.6775387664         5.8595463235         6.8024481741
 28  27         2.3905346064        70.0317153407      2795.6775387664         5.8595463235         6.8024481741
 28  28         2.3905346064        70.0317153407      2795.6775387664         5.8595463235         6.8024481741
 29   1         6.4458678595       223.9047115370      9321.6853689342         6.1709203697         6.8447950443
 29   2         6.4458678595       223.9047115370      9321.6853689343         6.1709203697         6.8447950443
 29   3         6.4458678595       223.9047115370      9321.6853689343         6.1709203697         6.8447950443
 29   4         6.4458678595       223.9047115370      9321.6853689342         6.1709203697         6.8447950443
 29   5         6.1534536659       216.0589037558      9150.1252001846         6.2143374251         6.8506997639
 29   6         6.1534536659       216.0589037558      9150.1252001841         6.2143374251         6.8506997639
 29   7         6.1534536659       216.0589037558      9150.1252001841         6.2143374251         6.8506997639
 29   8         6.1534536659       216.0589037558      9150.1252001838         6.2143374251         6.8506997639
 29   9         6.6505338499       225.8934487823      9160.2266711439         6.0960212168         6.8346087596
 29  10         6.6505338499       225.8934487823      9160.2266711441         6.0960212168         6.8346087596
 29  11         6.6505338499       225.8934487823      9160.2266711439         6.0960212168         6.8346087596
 29  12         6.6505338499       225.8934487823      9160.2266711438         6.0960212168         6.8346087596
 29  13         4.9630660297       146.7620229449      5363.9547377880         5.7390467052         6.7860602260
 29  14         4.9630660297       146.7620229449      5363.9547377879         5.7390467052         6.7860602260
 29  15         4.9630660297       146.7620229449      5363.9547377879         5.7390467052         6.7860602260
 29  16         4.9630660297       146.7620229449      5363.9547377879         5.7390467052         6.7860602260
 29  17         4.6516718231       119.2395280080      3882.0784351924         5.3812211278         6.7373959475
 29  18         4.6516718231       119.2395280080      3882.0784351923         5.3812211278         6.7373959475
 29  19         4.6516718231       119.2395280080      3882.0784351925         5.3812211278         6.7373959475
 29  20         4.6516718231       119.2395280080      3882.0784351924         5.3812211278         6.7373959475
 29  21         4.5233774706       115.9340883971      3788.5551933907         5.3862511523         6.7380800308
 29  22         4.5233774706       115.9340883971      3788.5551933907         5.3862511523         6.7380800308
 29  23         4.5233774706       115.9340883971      3788.5551933906         5.3862511523         6.7380800308
 29  24         4.5233774706       115.9340883971      3788.5551933907         5.3862511523         6.7380800308
 29  25         2.3448208974        68.5764772893      2754.4538477272         5.8666720974         6.8034172793
 29  26         2.3448208974        68.5764772893      2754.4538477273         5.8666720974         6.8034172793
 29  27         2.3448208974        68.5764772893      2754.4538477272         5.8666720974         6.8034172793
 29  28         2.3448208974        68.5764772893      2754.4538477273         5.8666720974         6.8034172793
 29  29         2.3003181800        67.1611202657      2714.1923856967         5.8737974079         6.8043863215
 30   1         6.4458678595       223.9047115370      9321.6853689344         6.1709203697         6.8447950443
 30   2         6.4458678595       223.9047115370      9321.6853689345         6.1709203697         6.8447950443
 30   3         6.4458678595       223.9047115370      9321.6853689345         6.1709203697         6.8447950443
 30   4         6.4458678595       223.9047115370      9321.6853689344         6.1709203697         6.8447950443
 30   5         6.1534536659       216.0589037558      9150.1252001848         6.2143374251         6.8506997639
 30   6         6.1534536659       216.0589037558      9150.1252001843         6.2143374251         6.8506997639
 30   7         6.1534536659       216.0589037558      9150.1252001843         6.2143374251         6.8506997639
 30   8         6.1534536659       216.0589037558      9150.1252001839         6.2143374251         6.8506997639
 30   9         6.6505338499       225.8934487823      9160.2266711441         6.0960212168         6.8346087596
 30  10         6.6505338499       225.8934487823      9160.2266711443         6.0960212168         6.8346087596
 30  11         6.6505338499       225.8934487823      9160.2266711441         6.0960212168         6.8346087596
 30  12         6.6505338499       225.8934487823      9160.2266711440         6.0960212168         6.8346087596
 30  13         4.9630660297       146.7620229449      5363.9547377881         5.7390467052         6.7860602260
 30  14         4.9630660297       146.7620229449      5363.9547377880         5.7390467052         6.7860602260
 30  15         4.9630660297       146.7620229449      5363.9547377880         5.7390467052         6.7860602260
 30  16         4.9630660297       146.7620229449      5363.9547377880         5.7390467052         6.7860602260
 30  17         4.6516718231       119.2395280080      3882.0784351924         5.3812211278         6.7373959475
 30  18         4.6516718231       119.2395280080      3882.0784351924         5.3812211278         6.7373959475
 30  19         4.6516718231       119.2395280080      3882.0784351926         5.3812211278         6.7373959475
[...]
            =   1.877949660605E-04  -6.985825582713E-04   1.283310156631E-04  Ry/bohr
  Fvdw (11) =  -9.389748303026E-05   3.492912791357E-04   6.416550783157E-05  Hartree/bohr
            =  -1.877949660605E-04   6.985825582713E-04   1.283310156631E-04  Ry/bohr
  Fvdw (12) =   9.389748303026E-05   3.492912791357E-04   6.416550783157E-05  Hartree/bohr
            =   1.877949660605E-04   6.985825582713E-04   1.283310156631E-04  Ry/bohr
  Fvdw (13) =   7.207481905727E-05   1.577072138411E-04   1.809526422530E-04  Hartree/bohr
            =   1.441496381145E-04   3.154144276823E-04   3.619052845060E-04  Ry/bohr
  Fvdw (14) =  -7.207481905727E-05   1.577072138411E-04   1.809526422530E-04  Hartree/bohr
            =  -1.441496381145E-04   3.154144276822E-04   3.619052845059E-04  Ry/bohr
  Fvdw (15) =   7.207481905727E-05  -1.577072138411E-04   1.809526422530E-04  Hartree/bohr
            =   1.441496381145E-04  -3.154144276823E-04   3.619052845060E-04  Ry/bohr
  Fvdw (16) =  -7.207481905727E-05  -1.577072138411E-04   1.809526422530E-04  Hartree/bohr
            =  -1.441496381145E-04  -3.154144276823E-04   3.619052845059E-04  Ry/bohr
  Fvdw (17) =  -3.827632086426E-05   1.165388968160E-04  -7.025184975970E-05  Hartree/bohr
            =  -7.655264172852E-05   2.330777936320E-04  -1.405036995194E-04  Ry/bohr
  Fvdw (18) =   3.827632086425E-05   1.165388968160E-04  -7.025184975970E-05  Hartree/bohr
            =   7.655264172850E-05   2.330777936320E-04  -1.405036995194E-04  Ry/bohr
  Fvdw (19) =  -3.827632086424E-05  -1.165388968160E-04  -7.025184975970E-05  Hartree/bohr
            =  -7.655264172849E-05  -2.330777936320E-04  -1.405036995194E-04  Ry/bohr
  Fvdw (20) =   3.827632086426E-05  -1.165388968160E-04  -7.025184975970E-05  Hartree/bohr
            =   7.655264172852E-05  -2.330777936320E-04  -1.405036995194E-04  Ry/bohr
  Fvdw (21) =   4.917480061142E-05  -6.873713644545E-05  -1.457665129708E-04  Hartree/bohr
            =   9.834960122284E-05  -1.374742728909E-04  -2.915330259416E-04  Ry/bohr
  Fvdw (22) =  -4.917480061143E-05  -6.873713644545E-05  -1.457665129708E-04  Hartree/bohr
            =  -9.834960122286E-05  -1.374742728909E-04  -2.915330259416E-04  Ry/bohr
  Fvdw (23) =   4.917480061143E-05   6.873713644546E-05  -1.457665129708E-04  Hartree/bohr
            =   9.834960122286E-05   1.374742728909E-04  -2.915330259416E-04  Ry/bohr
  Fvdw (24) =  -4.917480061142E-05   6.873713644545E-05  -1.457665129708E-04  Hartree/bohr
            =  -9.834960122284E-05   1.374742728909E-04  -2.915330259416E-04  Ry/bohr
  Fvdw (25) =  -3.372678044449E-05   7.410743987357E-05   7.409860245747E-05  Hartree/bohr
            =  -6.745356088898E-05   1.482148797471E-04   1.481972049149E-04  Ry/bohr
  Fvdw (26) =   3.372678044449E-05   7.410743987357E-05   7.409860245747E-05  Hartree/bohr
            =   6.745356088898E-05   1.482148797471E-04   1.481972049149E-04  Ry/bohr
  Fvdw (27) =  -3.372678044448E-05  -7.410743987357E-05   7.409860245747E-05  Hartree/bohr
            =  -6.745356088897E-05  -1.482148797471E-04   1.481972049149E-04  Ry/bohr
  Fvdw (28) =   3.372678044449E-05  -7.410743987357E-05   7.409860245747E-05  Hartree/bohr
            =   6.745356088897E-05  -1.482148797471E-04   1.481972049149E-04  Ry/bohr
  Fvdw (29) =   1.611079302987E-05   2.329909535998E-05   2.002422987505E-05  Hartree/bohr
            =   3.222158605973E-05   4.659819071996E-05   4.004845975010E-05  Ry/bohr
  Fvdw (30) =  -1.611079302987E-05   2.329909535998E-05   2.002422987505E-05  Hartree/bohr
            =  -3.222158605974E-05   4.659819071996E-05   4.004845975010E-05  Ry/bohr
  Fvdw (31) =   1.611079302987E-05  -2.329909535998E-05   2.002422987505E-05  Hartree/bohr
            =   3.222158605974E-05  -4.659819071996E-05   4.004845975010E-05  Ry/bohr
  Fvdw (32) =  -1.611079302987E-05  -2.329909535998E-05   2.002422987505E-05  Hartree/bohr
            =  -3.222158605973E-05  -4.659819071996E-05   4.004845975010E-05  Ry/bohr
  Fvdw (33) =   4.414867111095E-05   7.727232901887E-06   3.224851404026E-05  Hartree/bohr
            =   8.829734222191E-05   1.545446580377E-05   6.449702808052E-05  Ry/bohr
  Fvdw (34) =  -4.414867111096E-05   7.727232901887E-06   3.224851404026E-05  Hartree/bohr
            =  -8.829734222191E-05   1.545446580377E-05   6.449702808051E-05  Ry/bohr
  Fvdw (35) =   4.414867111096E-05  -7.727232901888E-06   3.224851404026E-05  Hartree/bohr
            =   8.829734222191E-05  -1.545446580378E-05   6.449702808052E-05  Ry/bohr
  Fvdw (36) =  -4.414867111096E-05  -7.727232901888E-06   3.224851404026E-05  Hartree/bohr
            =  -8.829734222192E-05  -1.545446580378E-05   6.449702808052E-05  Ry/bohr
  Fvdw (37) =   1.050707718665E-04   2.511030034067E-05   2.567336179189E-05  Hartree/bohr
            =   2.101415437329E-04   5.022060068135E-05   5.134672358379E-05  Ry/bohr
  Fvdw (38) =  -1.050707718665E-04   2.511030034067E-05   2.567336179189E-05  Hartree/bohr
            =  -2.101415437329E-04   5.022060068135E-05   5.134672358379E-05  Ry/bohr
  Fvdw (39) =   1.050707718665E-04  -2.511030034067E-05   2.567336179190E-05  Hartree/bohr
            =   2.101415437330E-04  -5.022060068135E-05   5.134672358379E-05  Ry/bohr
  Fvdw (40) =  -1.050707718665E-04  -2.511030034067E-05   2.567336179189E-05  Hartree/bohr
            =  -2.101415437329E-04  -5.022060068135E-05   5.134672358379E-05  Ry/bohr
  Fvdw (41) =   2.896653277631E-06  -7.017472179093E-05   4.869845885535E-05  Hartree/bohr
            =   5.793306555261E-06  -1.403494435819E-04   9.739691771069E-05  Ry/bohr
  Fvdw (42) =  -2.896653277630E-06  -7.017472179093E-05   4.869845885534E-05  Hartree/bohr
            =  -5.793306555261E-06  -1.403494435819E-04   9.739691771069E-05  Ry/bohr
  Fvdw (43) =   2.896653277634E-06   7.017472179093E-05   4.869845885534E-05  Hartree/bohr
            =   5.793306555268E-06   1.403494435819E-04   9.739691771069E-05  Ry/bohr
  Fvdw (44) =  -2.896653277635E-06   7.017472179093E-05   4.869845885535E-05  Hartree/bohr
            =  -5.793306555270E-06   1.403494435819E-04   9.739691771069E-05  Ry/bohr
  Fvdw (45) =  -7.384001601184E-06  -8.705301381136E-05  -3.974415432708E-06  Hartree/bohr
            =  -1.476800320237E-05  -1.741060276227E-04  -7.948830865416E-06  Ry/bohr
  Fvdw (46) =   7.384001601181E-06  -8.705301381136E-05  -3.974415432708E-06  Hartree/bohr
            =   1.476800320236E-05  -1.741060276227E-04  -7.948830865416E-06  Ry/bohr
  Fvdw (47) =  -7.384001601178E-06   8.705301381136E-05  -3.974415432708E-06  Hartree/bohr
            =  -1.476800320236E-05   1.741060276227E-04  -7.948830865416E-06  Ry/bohr
  Fvdw (48) =   7.384001601184E-06   8.705301381136E-05  -3.974415432708E-06  Hartree/bohr
            =   1.476800320237E-05   1.741060276227E-04  -7.948830865417E-06  Ry/bohr
  Fvdw (49) =  -9.738166878478E-05  -2.890115125314E-05  -1.078241230978E-05  Hartree/bohr
            =  -1.947633375696E-04  -5.780230250627E-05  -2.156482461956E-05  Ry/bohr
  Fvdw (50) =   9.738166878478E-05  -2.890115125314E-05  -1.078241230978E-05  Hartree/bohr
            =   1.947633375696E-04  -5.780230250627E-05  -2.156482461956E-05  Ry/bohr
  Fvdw (51) =  -9.738166878477E-05   2.890115125314E-05  -1.078241230978E-05  Hartree/bohr
            =  -1.947633375695E-04   5.780230250627E-05  -2.156482461956E-05  Ry/bohr
  Fvdw (52) =   9.738166878478E-05   2.890115125314E-05  -1.078241230978E-05  Hartree/bohr
            =   1.947633375696E-04   5.780230250627E-05  -2.156482461956E-05  Ry/bohr
  sigma_vdw (Hy/bohr**3) =  -4.644716369979E-05  -8.284320429605E-22   2.838102216945E-21  
                            -8.284320429605E-22  -4.467298258120E-05  -3.019923784513E-21  
                             2.838102216945E-21  -3.019923784513E-21  -4.504882785666E-05  
  sigma_vdw (Ry/bohr**3) =  -9.289432739958E-05  -1.656864085921E-21   5.676204433889E-21  
                            -1.656864085921E-21  -8.934596516240E-05  -6.039847569026E-21  
                             5.676204433889E-21  -6.039847569026E-21  -9.009765571332E-05  
  sigma_vdw (GPa) =  -1.366522505014E+00  -2.437330808609E-17   8.349983598678E-17  
                     -2.437330808609E-17  -1.314324303156E+00  -8.884921029056E-17  
                      8.349983598678E-17  -8.884921029056E-17  -1.325382051066E+00  
 
 TIME (final):      671.6

!    total energy              =    -702.12468505 Ry
     Harris-Foulkes estimate   =    -702.12468505 Ry
     estimated scf accuracy    <          6.6E-11 Ry

     total all-electron energy =      -702.124685 Ry

     The total energy is the sum of the following terms:

     one-electron contribution =    -330.81853401 Ry
     hartree contribution      =     221.55624037 Ry
     xc contribution           =    -139.54095300 Ry
     ewald contribution        =    -253.15166110 Ry
     Dispersion XDM Correction =      -0.23960348 Ry
     one-center paw contrib.   =    -199.93017383 Ry

     convergence has been achieved in  16 iterations

     Forces acting on atoms (Ry/au):

     atom    1 type  1   force =     0.00003918   -0.00003995   -0.00006305
     atom    2 type  1   force =    -0.00003918   -0.00003995   -0.00006305
     atom    3 type  1   force =     0.00003918    0.00003995   -0.00006305
     atom    4 type  1   force =    -0.00003918    0.00003995   -0.00006305
     atom    5 type  1   force =     0.00006176    0.00001954   -0.00000490
     atom    6 type  1   force =    -0.00006176    0.00001954   -0.00000490
     atom    7 type  1   force =     0.00006176   -0.00001954   -0.00000490
     atom    8 type  1   force =    -0.00006176   -0.00001954   -0.00000490
     atom    9 type  1   force =    -0.00002203    0.00007827    0.00000274
     atom   10 type  1   force =     0.00002203    0.00007827    0.00000274
     atom   11 type  1   force =    -0.00002203   -0.00007827    0.00000274
     atom   12 type  1   force =     0.00002203   -0.00007827    0.00000274
     atom   13 type  3   force =    -0.00009764    0.00002763   -0.00002303
     atom   14 type  3   force =     0.00009764    0.00002763   -0.00002303
     atom   15 type  3   force =    -0.00009764   -0.00002763   -0.00002303
     atom   16 type  3   force =     0.00009764   -0.00002763   -0.00002303
     atom   17 type  4   force =     0.00004131    0.00003874    0.00003502
     atom   18 type  4   force =    -0.00004131    0.00003874    0.00003502
     atom   19 type  4   force =     0.00004131   -0.00003874    0.00003502
     atom   20 type  4   force =    -0.00004131   -0.00003874    0.00003502
     atom   21 type  4   force =    -0.00001289    0.00014648    0.00010220
     atom   22 type  4   force =     0.00001289    0.00014648    0.00010220
     atom   23 type  4   force =    -0.00001289   -0.00014648    0.00010220
     atom   24 type  4   force =     0.00001289   -0.00014648    0.00010220
     atom   25 type  2   force =     0.00011783   -0.00002840   -0.00002509
     atom   26 type  2   force =    -0.00011783   -0.00002840   -0.00002509
     atom   27 type  2   force =     0.00011783    0.00002840   -0.00002509
     atom   28 type  2   force =    -0.00011783    0.00002840   -0.00002509
     atom   29 type  2   force =    -0.00008060    0.00005633   -0.00001430
     atom   30 type  2   force =     0.00008060    0.00005633   -0.00001430
     atom   31 type  2   force =    -0.00008060   -0.00005633   -0.00001430
     atom   32 type  2   force =     0.00008060   -0.00005633   -0.00001430
     atom   33 type  2   force =     0.00005901    0.00001791   -0.00005895
     atom   34 type  2   force =    -0.00005901    0.00001791   -0.00005895
     atom   35 type  2   force =     0.00005901   -0.00001791   -0.00005895
     atom   36 type  2   force =    -0.00005901   -0.00001791   -0.00005895
     atom   37 type  2   force =    -0.00008656    0.00015653   -0.00002761
     atom   38 type  2   force =     0.00008656    0.00015653   -0.00002761
     atom   39 type  2   force =    -0.00008656   -0.00015653   -0.00002761
     atom   40 type  2   force =     0.00008656   -0.00015653   -0.00002761
     atom   41 type  2   force =    -0.00006880    0.00008750   -0.00000428
     atom   42 type  2   force =     0.00006880    0.00008750   -0.00000428
     atom   43 type  2   force =    -0.00006880   -0.00008750   -0.00000428
     atom   44 type  2   force =     0.00006880   -0.00008750   -0.00000428
     atom   45 type  2   force =     0.00000683    0.00007577    0.00006069
     atom   46 type  2   force =    -0.00000683    0.00007577    0.00006069
     atom   47 type  2   force =     0.00000683   -0.00007577    0.00006069
     atom   48 type  2   force =    -0.00000683   -0.00007577    0.00006069
     atom   49 type  2   force =     0.00011558   -0.00003299    0.00002055
     atom   50 type  2   force =    -0.00011558   -0.00003299    0.00002055
     atom   51 type  2   force =     0.00011558    0.00003299    0.00002055
     atom   52 type  2   force =    -0.00011558    0.00003299    0.00002055

     Total force =     0.000818     Total SCF correction =     0.000007

     Total XDM Dispersion Force =     0.002699

     XDM Dispersion forces acting on atoms:
     atom    1 type  1   force =     0.00017255    0.00020068   -0.00055002
     atom    2 type  1   force =    -0.00017255    0.00020068   -0.00055002
     atom    3 type  1   force =     0.00017255   -0.00020068   -0.00055002
     atom    4 type  1   force =    -0.00017255   -0.00020068   -0.00055002
     atom    5 type  1   force =     0.00047106   -0.00010559    0.00011985
     atom    6 type  1   force =    -0.00047106   -0.00010559    0.00011985
     atom    7 type  1   force =     0.00047106    0.00010559    0.00011985
     atom    8 type  1   force =    -0.00047106    0.00010559    0.00011985
     atom    9 type  1   force =    -0.00018779   -0.00069858    0.00012833
     atom   10 type  1   force =     0.00018779   -0.00069858    0.00012833
     atom   11 type  1   force =    -0.00018779    0.00069858    0.00012833
     atom   12 type  1   force =     0.00018779    0.00069858    0.00012833
     atom   13 type  3   force =     0.00014415    0.00031541    0.00036191
     atom   14 type  3   force =    -0.00014415    0.00031541    0.00036191
     atom   15 type  3   force =     0.00014415   -0.00031541    0.00036191
     atom   16 type  3   force =    -0.00014415   -0.00031541    0.00036191
     atom   17 type  4   force =    -0.00007655    0.00023308   -0.00014050
     atom   18 type  4   force =     0.00007655    0.00023308   -0.00014050
     atom   19 type  4   force =    -0.00007655   -0.00023308   -0.00014050
     atom   20 type  4   force =     0.00007655   -0.00023308   -0.00014050
     atom   21 type  4   force =     0.00009835   -0.00013747   -0.00029153
     atom   22 type  4   force =    -0.00009835   -0.00013747   -0.00029153
     atom   23 type  4   force =     0.00009835    0.00013747   -0.00029153
     atom   24 type  4   force =    -0.00009835    0.00013747   -0.00029153
     atom   25 type  2   force =    -0.00006745    0.00014821    0.00014820
     atom   26 type  2   force =     0.00006745    0.00014821    0.00014820
     atom   27 type  2   force =    -0.00006745   -0.00014821    0.00014820
     atom   28 type  2   force =     0.00006745   -0.00014821    0.00014820
     atom   29 type  2   force =     0.00003222    0.00004660    0.00004005
     atom   30 type  2   force =    -0.00003222    0.00004660    0.00004005
     atom   31 type  2   force =     0.00003222   -0.00004660    0.00004005
     atom   32 type  2   force =    -0.00003222   -0.00004660    0.00004005
     atom   33 type  2   force =     0.00008830    0.00001545    0.00006450
     atom   34 type  2   force =    -0.00008830    0.00001545    0.00006450
     atom   35 type  2   force =     0.00008830   -0.00001545    0.00006450
     atom   36 type  2   force =    -0.00008830   -0.00001545    0.00006450
     atom   37 type  2   force =     0.00021014    0.00005022    0.00005135
     atom   38 type  2   force =    -0.00021014    0.00005022    0.00005135
     atom   39 type  2   force =     0.00021014   -0.00005022    0.00005135
     atom   40 type  2   force =    -0.00021014   -0.00005022    0.00005135
     atom   41 type  2   force =     0.00000579   -0.00014035    0.00009740
     atom   42 type  2   force =    -0.00000579   -0.00014035    0.00009740
     atom   43 type  2   force =     0.00000579    0.00014035    0.00009740
     atom   44 type  2   force =    -0.00000579    0.00014035    0.00009740
     atom   45 type  2   force =    -0.00001477   -0.00017411   -0.00000795
     atom   46 type  2   force =     0.00001477   -0.00017411   -0.00000795
     atom   47 type  2   force =    -0.00001477    0.00017411   -0.00000795
     atom   48 type  2   force =     0.00001477    0.00017411   -0.00000795
     atom   49 type  2   force =    -0.00019476   -0.00005780   -0.00002156
     atom   50 type  2   force =     0.00019476   -0.00005780   -0.00002156
     atom   51 type  2   force =    -0.00019476    0.00005780   -0.00002156
     atom   52 type  2   force =     0.00019476    0.00005780   -0.00002156


     entering subroutine stress ...

          total   stress  (Ry/bohr**3)                   (kbar)     P=   -0.05
  -0.00000033   0.00000000   0.00000000         -0.05      0.00      0.00
   0.00000000  -0.00000039   0.00000000          0.00     -0.06      0.00
   0.00000000   0.00000000  -0.00000038          0.00      0.00     -0.06


     Writing output data file ala_dl.save
 
     init_run     :    227.61s CPU    228.21s WALL (       2 calls)
     electrons    :   4629.49s CPU   4666.03s WALL (       4 calls)
     update_pot   :    294.95s CPU    295.05s WALL (       2 calls)
     forces       :    345.80s CPU    346.07s WALL (       4 calls)
     stress       :    578.05s CPU    578.58s WALL (       4 calls)

     Called by init_run:
     wfcinit      :     67.85s CPU     68.24s WALL (       2 calls)
     potinit      :     65.57s CPU     65.68s WALL (       2 calls)

     Called by electrons:
     c_bands      :   1930.52s CPU   1958.30s WALL (      50 calls)
     sum_band     :   1640.73s CPU   1645.69s WALL (      50 calls)
     v_of_rho     :    102.77s CPU    105.19s WALL (      52 calls)
     newd         :    198.18s CPU    198.77s WALL (      52 calls)
     mix_rho      :     34.58s CPU     34.63s WALL (      50 calls)

     Called by c_bands:
     init_us_2    :     12.37s CPU     12.37s WALL (     880 calls)
     cegterg      :   1907.88s CPU   1930.72s WALL (     400 calls)

     Called by *egterg:
     h_psi        :   1612.69s CPU   1614.52s WALL (    1333 calls)
     s_psi        :     82.61s CPU     82.62s WALL (    1333 calls)
     g_psi        :      6.76s CPU      6.78s WALL (     917 calls)
     cdiaghg      :     18.90s CPU     18.91s WALL (    1285 calls)

     Called by h_psi:
     add_vuspsi   :     82.74s CPU     82.75s WALL (    1333 calls)

     General routines
     calbec       :    122.86s CPU    122.89s WALL (    1797 calls)
     fft          :     82.77s CPU     83.71s WALL (    1602 calls)
     ffts         :      2.04s CPU      2.10s WALL (     204 calls)
     fftw         :   2259.42s CPU   2262.40s WALL (  269988 calls)
     interpolate  :     13.83s CPU     14.08s WALL (     204 calls)
     davcio       :      0.03s CPU      8.10s WALL (    1280 calls)
 
     Parallel routines
     fft_scatter  :    361.13s CPU    363.67s WALL (  271794 calls)
 
     PAW routines
     PAW_pot      :     66.11s CPU     66.13s WALL (      52 calls)
     PAW_ddot     :     19.76s CPU     19.76s WALL (    1052 calls)
     PAW_symme    :      0.01s CPU      0.01s WALL (     100 calls)
 
     PWSCF        :     1h41m CPU        1h42m WALL

 
   This run was terminated on:  19:46:23   6Jun2012            

=------------------------------------------------------------------------------=
   JOB DONE.
=------------------------------------------------------------------------------=
