
     Program PWSCF v.4.3.2      starts on  6Jun2012 at 18: 4:18 

     This program is part of the open-source Quantum ESPRESSO suite
     for quantum simulation of materials; please cite
         "P. Giannozzi et al., J. Phys.:Condens. Matter 21 395502 (2009);
          URL http://www.quantum-espresso.org", 
     in publications or presentations arising from this work. More details at
     http://www.quantum-espresso.org/wiki/index.php/Citing_Quantum-ESPRESSO

     Parallel version (MPI), running on     4 processors
     R & G space division:  proc/pool =    4

     Current dimensions of program PWSCF are:
     Max number of different atomic species (ntypx) = 10
     Max number of k-points (npk) =  40000
     Max angular momentum in pseudopotentials (lmaxx) =  3
     Waiting for input...
     Reading input from stdin
               file n.UPF: wavefunction(s)  Xn Xn renormalized
               file o.UPF: wavefunction(s)  Xn Xn renormalized

     Subspace diagonalization in iterative solution of the eigenvalue problem:
     a serial algorithm will be used

 
     Parallelization info
     --------------------
     sticks:   dense  smooth     PW     G-vecs:    dense   smooth      PW
     Min        4141    1655    444               274191    69325    9626
     Max        4143    1656    445               274192    69354    9627
     Sum       16567    6621   1779              1096765   277355   38507
 

     Title: 
     ala_l                                                                      


     bravais-lattice index     =            0
     lattice parameter (alat)  =       1.0000  a.u.
     unit-cell volume          =    2870.2038 (a.u.)^3
     number of atoms/cell      =           52
     number of atomic types    =            4
     number of electrons       =       144.00
     number of Kohn-Sham states=           72
     kinetic-energy cutoff     =      80.0000  Ry
     charge density cutoff     =     800.0000  Ry
     convergence threshold     =      1.0E-08
     mixing beta               =       0.7000
     number of iterations used =            8  plain     mixing
     Exchange-correlation      = B86B ( 1 418 4 0)
     EXX-fraction              =        0.00
     nstep                     =           50


     celldm(1)=   1.000000  celldm(2)=   0.000000  celldm(3)=   0.000000
     celldm(4)=   0.000000  celldm(5)=   0.000000  celldm(6)=   0.000000

     crystal axes: (cart. coord. in units of alat)
               a(1) = (  11.401434   0.000000   0.000000 )  
               a(2) = (   0.000000  22.804814   0.000000 )  
               a(3) = (   0.000000   0.000000  11.038924 )  

     reciprocal axes: (cart. coord. in units 2 pi/alat)
               b(1) = (  0.087708  0.000000  0.000000 )  
               b(2) = (  0.000000  0.043850  0.000000 )  
               b(3) = (  0.000000  0.000000  0.090589 )  


     PseudoPot. # 1 for C  read from file:
     ./c.UPF
     MD5 check sum: 7d4f5342ccdded2f34e910ef3a0bffe3
     Pseudo is Projector augmented-wave + core cor, Zval =  4.0
     Generated using ATOMPAW code
     Shape of augmentation charge: SINC**2
     Using radial grid of 2342 points,  2 beta functions with: 
                l(1) =   0
                l(2) =   1
     Q(r) pseudized with 0 coefficients 


     PseudoPot. # 2 for H  read from file:
     ./h.UPF
     MD5 check sum: a1a08a69276e7e7269f03dd4353a4644
     Pseudo is Projector augmented-wave + core cor, Zval =  1.0
     Generated using ATOMPAW code
     Shape of augmentation charge: SINC**2
     Using radial grid of 2342 points,  1 beta functions with: 
                l(1) =   0
     Q(r) pseudized with 0 coefficients 


     PseudoPot. # 3 for N  read from file:
     ./n.UPF
     MD5 check sum: 5aec23488194fe1e9fcb5a39c003f111
     Pseudo is Projector augmented-wave + core cor, Zval =  5.0
     Generated using ATOMPAW code
     Shape of augmentation charge: SINC**2
     Using radial grid of 2342 points,  4 beta functions with: 
                l(1) =   0
                l(2) =   0
                l(3) =   1
                l(4) =   1
     Q(r) pseudized with 0 coefficients 


     PseudoPot. # 4 for O  read from file:
     ./o.UPF
     MD5 check sum: 2d688a4fb970915d860abe01db6d1753
     Pseudo is Projector augmented-wave + core cor, Zval =  6.0
     Generated using ATOMPAW code
     Shape of augmentation charge: SINC**2
     Using radial grid of 2342 points,  4 beta functions with: 
                l(1) =   0
                l(2) =   0
                l(3) =   1
                l(4) =   1
     Q(r) pseudized with 0 coefficients 


     atomic species   valence    mass     pseudopotential
        c              4.00    12.01070     C ( 1.00)
        h              1.00     1.00794     H ( 1.00)
        n              5.00    14.00670     N ( 1.00)
        o              6.00    15.99940     O ( 1.00)

      4 Sym.Ops. (no inversion)


   Cartesian axes

     site n.     atom                  positions (alat units)
         1           c   tau(   1) = (   6.3623050   3.1959932   6.6639901  )
         2           c   tau(   2) = (   0.6615882   8.2064135   4.3749339  )
         3           c   tau(   3) = (   5.0391286  14.5984000   9.8943959  )
         4           c   tau(   4) = (  10.7398455  19.6088203   1.1445281  )
         5           c   tau(   5) = (   5.3296665   3.6770331   3.9875776  )
         6           c   tau(   6) = (  11.0303834   7.7253737   7.0513464  )
         7           c   tau(   7) = (   6.0717671  15.0794399   1.5318844  )
         8           c   tau(   8) = (   0.3710503  19.1277804   9.5070395  )
         9           c   tau(   9) = (   3.0290930   2.0258106   3.4324358  )
        10           c   tau(  10) = (   8.7298098   9.3765962   7.6064881  )
        11           c   tau(  11) = (   8.3723406  13.4282173   2.0870262  )
        12           c   tau(  12) = (   2.6716238  20.7790030   8.9518978  )
        13           n   tau(  13) = (   7.3405366   3.2185040   2.0661255  )
        14           n   tau(  14) = (   1.6398198   8.1839027   8.9727985  )
        15           n   tau(  15) = (   4.0608970  14.6209108   3.4533365  )
        16           n   tau(  16) = (   9.7616138  19.5863095   7.5855874  )
        17           o   tau(  17) = (   8.3279519   1.8809171   6.9052707  )
        18           o   tau(  18) = (   2.6272351   9.5214897   4.1336532  )
        19           o   tau(  19) = (   3.0734817  13.2833238   9.6531152  )
        20           o   tau(  20) = (   8.7741985  20.9238965   1.3858087  )
        21           o   tau(  21) = (   5.1067060   4.1912602   8.4722207  )
        22           o   tau(  22) = (  10.8074228   7.2111466   2.5667033  )
        23           o   tau(  23) = (   6.2947276  15.5936669   8.0861652  )
        24           o   tau(  24) = (   0.5940108  18.6135534   2.9527587  )
        25           h   tau(  25) = (   8.0262172   1.3755198   2.1595750  )
        26           h   tau(  26) = (   2.3255004  10.0268870   8.8793490  )
        27           h   tau(  27) = (   3.3752164  12.7779266   3.3598870  )
        28           h   tau(  28) = (   9.0759333  21.4292937   7.6790369  )
        29           h   tau(  29) = (   8.8091246   4.5119880   2.3483921  )
        30           h   tau(  30) = (   3.1084077   6.8904188   8.6905319  )
        31           h   tau(  31) = (   2.5923091  15.9143948   3.1710699  )
        32           h   tau(  32) = (   8.2930259  18.2928255   7.8678540  )
        33           h   tau(  33) = (   6.5890751   3.5064783   0.2318135  )
        34           h   tau(  34) = (   0.8883583   7.8959284  10.8071105  )
        35           h   tau(  35) = (   4.8123586  14.9088851   5.2876485  )
        36           h   tau(  36) = (  10.5130754  19.2983352   5.7512754  )
        37           h   tau(  37) = (   4.8203574   5.6808612   3.8405778  )
        38           h   tau(  38) = (  10.5210742   5.7215456   7.1983461  )
        39           h   tau(  39) = (   6.5810762  17.0832679   1.6788842  )
        40           h   tau(  40) = (   0.8803594  17.1239524   9.3600398  )
        41           h   tau(  41) = (   2.2516428   2.4838878   1.5694714  )
        42           h   tau(  42) = (   7.9523596   8.9185190   9.4694525  )
        43           h   tau(  43) = (   9.1497909  13.8862945   3.9499905  )
        44           h   tau(  44) = (   3.4490741  20.3209258   7.0889334  )
        45           h   tau(  45) = (   1.5543633   2.3349489   4.8487630  )
        46           h   tau(  46) = (   7.2550801   9.0674579   6.1901610  )
        47           h   tau(  47) = (   9.8470704  13.7373557   0.6706990  )
        48           h   tau(  48) = (   4.1463535  20.4698646  10.3682250  )
        49           h   tau(  49) = (   3.5387011   0.0189853   3.4533160  )
        50           h   tau(  50) = (   9.2394179  11.3834215   7.5856080  )
        51           h   tau(  51) = (   7.8627325  11.4213920   2.0661460  )
        52           h   tau(  52) = (   2.1620157  22.7858283   8.9727779  )

     number of k points=     8
                       cart. coord. in units 2pi/alat
        k(    1) = (   0.0109635   0.0054813   0.0113236), wk =   0.2500000
        k(    2) = (   0.0109635   0.0054813   0.0339707), wk =   0.2500000
        k(    3) = (   0.0109635   0.0164439   0.0113236), wk =   0.2500000
        k(    4) = (   0.0109635   0.0164439   0.0339707), wk =   0.2500000
        k(    5) = (   0.0328906   0.0054813   0.0113236), wk =   0.2500000
        k(    6) = (   0.0328906   0.0054813   0.0339707), wk =   0.2500000
        k(    7) = (   0.0328906   0.0164439   0.0113236), wk =   0.2500000
        k(    8) = (   0.0328906   0.0164439   0.0339707), wk =   0.2500000

     Dense  grid:  1096765 G-vectors     FFT dimensions: ( 108, 216, 100)

     Smooth grid:   277355 G-vectors     FFT dimensions: (  72, 135,  64)

     Largest allocated arrays     est. size (Mb)     dimensions
        Kohn-Sham Wavefunctions         9.57 Mb     (   8713,   72)
        NL pseudopotentials            22.87 Mb     (   8713,  172)
        Each V/rho on FFT grid          8.90 Mb     ( 583200)
        Each G-vector array             2.09 Mb     ( 274192)
        G-vector shells                 2.09 Mb     ( 274192)
     Largest temporary arrays     est. size (Mb)     dimensions
        Auxiliary wavefunctions        38.29 Mb     (   8713,  288)
        Each subspace H/S matrix        1.27 Mb     ( 288, 288)
        Each <psi_i|beta_j> matrix      0.19 Mb     (    172,   72)
        Arrays for rho mixing          71.19 Mb     ( 583200,   8)

     Initial potential from superposition of free atoms

     starting charge  143.99919, renormalised to  144.00000
     Starting wfc are  172 atomic wfcs
     Checking if some PAW data can be deallocated... 

     total cpu time spent up to now is      151.5 secs

     per-process dynamical memory:   207.7 Mb

     Self-consistent Calculation

     iteration #  1     ecut=    80.00 Ry     beta=0.70
     Davidson diagonalization with overlap
     ethr =  1.00E-02,  avg # of iterations =  2.0

     total cpu time spent up to now is      239.8 secs

     total energy              =    -699.85590152 Ry
     Harris-Foulkes estimate   =    -703.83042958 Ry
     estimated scf accuracy    <     118.80807518 Ry

     iteration #  2     ecut=    80.00 Ry     beta=0.70
     Davidson diagonalization with overlap
     ethr =  1.00E-02,  avg # of iterations =  2.0

     total cpu time spent up to now is      327.2 secs

     total energy              =    -700.27732037 Ry
     Harris-Foulkes estimate   =    -702.85223402 Ry
     estimated scf accuracy    <      27.01576831 Ry

     iteration #  3     ecut=    80.00 Ry     beta=0.70
     Davidson diagonalization with overlap
     ethr =  1.00E-02,  avg # of iterations =  3.0

     total cpu time spent up to now is      415.2 secs

     total energy              =    -700.35149442 Ry
     Harris-Foulkes estimate   =    -703.98108405 Ry
     estimated scf accuracy    <      12.42203969 Ry

     iteration #  4     ecut=    80.00 Ry     beta=0.70
     Davidson diagonalization with overlap
     ethr =  8.63E-03,  avg # of iterations =  2.0

     total cpu time spent up to now is      494.7 secs

     total energy              =    -701.77821838 Ry
     Harris-Foulkes estimate   =    -701.85412478 Ry
     estimated scf accuracy    <       0.30826848 Ry

     iteration #  5     ecut=    80.00 Ry     beta=0.70
     Davidson diagonalization with overlap
     ethr =  2.14E-04,  avg # of iterations =  3.0

     total cpu time spent up to now is      584.0 secs

     total energy              =    -701.88276912 Ry
     Harris-Foulkes estimate   =    -701.89276559 Ry
     estimated scf accuracy    <       0.08307588 Ry

     iteration #  6     ecut=    80.00 Ry     beta=0.70
     Davidson diagonalization with overlap
     ethr =  5.77E-05,  avg # of iterations =  1.0

     total cpu time spent up to now is      656.1 secs

     total energy              =    -701.88186504 Ry
     Harris-Foulkes estimate   =    -701.88479986 Ry
     estimated scf accuracy    <       0.03426629 Ry

     iteration #  7     ecut=    80.00 Ry     beta=0.70
     Davidson diagonalization with overlap
     ethr =  2.38E-05,  avg # of iterations =  2.0

     total cpu time spent up to now is      729.6 secs

     total energy              =    -701.88282182 Ry
     Harris-Foulkes estimate   =    -701.88323854 Ry
     estimated scf accuracy    <       0.00501631 Ry

     iteration #  8     ecut=    80.00 Ry     beta=0.70
     Davidson diagonalization with overlap
     ethr =  3.48E-06,  avg # of iterations =  2.6

     total cpu time spent up to now is      806.1 secs

     total energy              =    -701.88320203 Ry
     Harris-Foulkes estimate   =    -701.88326112 Ry
     estimated scf accuracy    <       0.00051869 Ry

     iteration #  9     ecut=    80.00 Ry     beta=0.70
     Davidson diagonalization with overlap
     ethr =  3.60E-07,  avg # of iterations =  3.0

     total cpu time spent up to now is      891.3 secs

     total energy              =    -701.88329119 Ry
     Harris-Foulkes estimate   =    -701.88330106 Ry
     estimated scf accuracy    <       0.00004967 Ry

     iteration # 10     ecut=    80.00 Ry     beta=0.70
     Davidson diagonalization with overlap
     ethr =  3.45E-08,  avg # of iterations =  4.0

     total cpu time spent up to now is      972.1 secs

     total energy              =    -701.88329632 Ry
     Harris-Foulkes estimate   =    -701.88329934 Ry
     estimated scf accuracy    <       0.00001250 Ry

     iteration # 11     ecut=    80.00 Ry     beta=0.70
     Davidson diagonalization with overlap
     ethr =  8.68E-09,  avg # of iterations =  3.2

     total cpu time spent up to now is     1053.3 secs

     total energy              =    -701.88329788 Ry
     Harris-Foulkes estimate   =    -701.88329810 Ry
     estimated scf accuracy    <       0.00000133 Ry

     iteration # 12     ecut=    80.00 Ry     beta=0.70
     Davidson diagonalization with overlap
     ethr =  9.27E-10,  avg # of iterations =  2.0

     total cpu time spent up to now is     1130.3 secs

     total energy              =    -701.88329793 Ry
     Harris-Foulkes estimate   =    -701.88329800 Ry
     estimated scf accuracy    <       0.00000038 Ry

     iteration # 13     ecut=    80.00 Ry     beta=0.70
     Davidson diagonalization with overlap
     ethr =  2.62E-10,  avg # of iterations =  3.0

     total cpu time spent up to now is     1206.4 secs

     total energy              =    -701.88329796 Ry
     Harris-Foulkes estimate   =    -701.88329797 Ry
     estimated scf accuracy    <       0.00000002 Ry

     iteration # 14     ecut=    80.00 Ry     beta=0.70
     Davidson diagonalization with overlap
     ethr =  1.33E-11,  avg # of iterations =  3.0

     total cpu time spent up to now is     1299.9 secs

     total energy              =    -701.88329796 Ry
     Harris-Foulkes estimate   =    -701.88329797 Ry
     estimated scf accuracy    <       0.00000001 Ry

     iteration # 15     ecut=    80.00 Ry     beta=0.70
     Davidson diagonalization with overlap
     ethr =  9.22E-12,  avg # of iterations =  2.0

     total cpu time spent up to now is     1376.9 secs

     End of self-consistent calculation

          k = 0.0110 0.0055 0.0113 ( 34688 PWs)   bands (ev):

   -20.0262 -19.9845 -19.9567 -19.9225 -17.7791 -17.7211 -17.6534 -17.6255
   -17.3017 -17.2264 -17.1900 -17.1386 -12.5945 -12.5561 -12.4863 -12.4525
    -9.9120  -9.8847  -9.6139  -9.5924  -7.7567  -7.7060  -7.4715  -7.4403
    -7.1174  -7.0680  -7.0045  -6.9922  -5.9299  -5.7664  -5.6878  -5.5803
    -5.5515  -5.5076  -5.0789  -4.9390  -4.8414  -4.7289  -4.5343  -4.4508
    -4.3020  -4.1956  -3.8911  -3.8231  -3.7684  -3.6655  -3.6201  -3.5138
    -3.1116  -3.0838  -2.9776  -2.9276  -2.8959  -2.7476  -2.7231  -2.6615
    -2.4293  -2.2946  -2.1717  -1.8792  -0.4572  -0.4181  -0.3766  -0.3372
    -0.2953  -0.2030  -0.1411  -0.1055   0.1451   0.2533   0.5117   0.6122

          k = 0.0110 0.0055 0.0340 ( 34665 PWs)   bands (ev):

   -19.9797 -19.9602 -19.9294 -19.9149 -17.8732 -17.8615 -17.7035 -17.6940
   -17.2677 -17.2370 -17.1375 -17.1178 -12.5109 -12.4726 -12.4465 -12.4080
    -9.6802  -9.6546  -9.5450  -9.5215  -7.5954  -7.4488  -7.3747  -7.2184
    -7.2033  -7.0936  -6.9385  -6.9148  -6.4953  -6.3604  -6.2926  -6.2348
    -5.5309  -5.3692  -5.3132  -5.0798  -4.8817  -4.8063  -4.5247  -4.4512
    -4.2523  -4.1204  -3.9833  -3.8518  -3.8008  -3.6983  -3.6765  -3.5839
    -3.1101  -3.0399  -2.9748  -2.8768  -2.8084  -2.7843  -2.7504  -2.6481
    -2.3917  -2.3077  -2.0634  -1.9605  -0.4024  -0.3797  -0.3327  -0.3034
     0.1328   0.1497   0.2568   0.3188   0.3458   0.3838   0.4371   0.5393

          k = 0.0110 0.0164 0.0113 ( 34705 PWs)   bands (ev):

   -20.0175 -20.0022 -19.9412 -19.9290 -17.7625 -17.7378 -17.6486 -17.6352
   -17.2797 -17.2496 -17.1713 -17.1510 -12.5854 -12.5701 -12.4736 -12.4603
    -9.9045  -9.8933  -9.6070  -9.5981  -7.7451  -7.7242  -7.4538  -7.4404
    -7.0974  -7.0654  -7.0290  -7.0164  -5.8526  -5.7830  -5.6699  -5.6098
    -5.5676  -5.5493  -5.0106  -4.9162  -4.8673  -4.7796  -4.5203  -4.4956
    -4.2477  -4.2038  -3.8849  -3.8555  -3.7389  -3.7010  -3.5763  -3.5360
    -3.1141  -3.1003  -2.9443  -2.9228  -2.8712  -2.7935  -2.7133  -2.6970
    -2.3930  -2.3491  -2.0529  -1.9423  -0.4634  -0.4413  -0.3749  -0.3497
    -0.2333  -0.2011  -0.1491  -0.1286   0.1736   0.2170   0.5469   0.5873

          k = 0.0110 0.0164 0.0340 ( 34672 PWs)   bands (ev):

   -19.9750 -19.9673 -19.9238 -19.9181 -17.8675 -17.8625 -17.7048 -17.7007
   -17.2549 -17.2417 -17.1343 -17.1256 -12.5031 -12.4892 -12.4299 -12.4158
    -9.6736  -9.6631  -9.5371  -9.5275  -7.5619  -7.5039  -7.3305  -7.2599
    -7.1653  -7.1166  -6.9434  -6.9306  -6.4373  -6.3823  -6.2810  -6.2557
    -5.4911  -5.4231  -5.2587  -5.1637  -4.8244  -4.7868  -4.5280  -4.4988
    -4.2109  -4.1488  -3.9733  -3.9129  -3.7472  -3.7061  -3.6554  -3.6187
    -3.0867  -3.0572  -2.9387  -2.8973  -2.8074  -2.8020  -2.7121  -2.6729
    -2.3660  -2.3307  -2.0318  -1.9892  -0.3931  -0.3804  -0.3327  -0.3174
     0.1439   0.1516   0.2706   0.2951   0.3460   0.3567   0.4831   0.5195

          k = 0.0329 0.0055 0.0113 ( 34684 PWs)   bands (ev):

   -20.0047 -19.9802 -19.9604 -19.9391 -17.7565 -17.7242 -17.6709 -17.6486
   -17.2764 -17.2474 -17.1641 -17.1454 -12.5972 -12.5819 -12.5288 -12.5139
    -9.8095  -9.8032  -9.6494  -9.6393  -7.7467  -7.7207  -7.4214  -7.3982
    -7.1098  -6.9952  -6.9421  -6.9223  -5.8658  -5.7802  -5.7101  -5.6586
    -5.5612  -5.5326  -5.0294  -4.9229  -4.7586  -4.6641  -4.6248  -4.4968
    -4.2836  -4.2570  -4.0080  -3.9668  -3.7595  -3.6390  -3.5673  -3.5298
    -3.1128  -3.0922  -2.9558  -2.9357  -2.8242  -2.8015  -2.7702  -2.6862
    -2.3898  -2.3052  -2.1514  -2.0211  -0.4550  -0.4311  -0.3607  -0.3073
    -0.2643  -0.2306  -0.1621  -0.1418   0.2138   0.2514   0.5416   0.5671

          k = 0.0329 0.0055 0.0340 ( 34693 PWs)   bands (ev):

   -19.9635 -19.9481 -19.9400 -19.9268 -17.8384 -17.8284 -17.7548 -17.7455
   -17.2272 -17.2086 -17.1507 -17.1365 -12.5212 -12.5015 -12.4860 -12.4659
    -9.6039  -9.5964  -9.5360  -9.5259  -7.5574  -7.4905  -7.2976  -7.2374
    -7.1499  -7.0192  -6.9444  -6.8858  -6.4218  -6.3447  -6.3095  -6.2687
    -5.5652  -5.4926  -5.2808  -5.1871  -4.6842  -4.6550  -4.5335  -4.4337
    -4.1812  -4.1505  -4.0993  -3.9567  -3.8373  -3.7580  -3.7020  -3.6079
    -3.0476  -3.0234  -2.9376  -2.9243  -2.8440  -2.8312  -2.7796  -2.6959
    -2.3008  -2.2367  -2.1199  -2.0640  -0.4284  -0.4200  -0.3462  -0.3143
     0.1622   0.1877   0.2422   0.2716   0.3494   0.3789   0.4715   0.4992

          k = 0.0329 0.0164 0.0113 ( 34679 PWs)   bands (ev):

   -19.9995 -19.9903 -19.9512 -19.9434 -17.7412 -17.7241 -17.6774 -17.6641
   -17.2590 -17.2454 -17.1658 -17.1563 -12.5932 -12.5869 -12.5239 -12.5178
    -9.8078  -9.8052  -9.6462  -9.6420  -7.7372  -7.7255  -7.4187  -7.4064
    -7.0811  -7.0340  -6.9378  -6.9278  -5.8228  -5.7894  -5.7009  -5.6747
    -5.5591  -5.5348  -5.0021  -4.9547  -4.7411  -4.6942  -4.6117  -4.5636
    -4.2468  -4.2286  -4.0065  -3.9879  -3.7158  -3.6656  -3.5639  -3.5486
    -3.1165  -3.1088  -2.9175  -2.8996  -2.8351  -2.8080  -2.7721  -2.7274
    -2.3546  -2.3196  -2.1192  -2.0639  -0.4341  -0.3956  -0.3799  -0.3302
    -0.2429  -0.2255  -0.1736  -0.1639   0.2217   0.2370   0.5508   0.5612

          k = 0.0329 0.0164 0.0340 ( 34680 PWs)   bands (ev):

   -19.9603 -19.9547 -19.9340 -19.9293 -17.8295 -17.8245 -17.7608 -17.7561
   -17.2130 -17.2032 -17.1555 -17.1475 -12.5169 -12.5095 -12.4778 -12.4703
    -9.6019  -9.5988  -9.5327  -9.5286  -7.5318  -7.5002  -7.3025  -7.2703
    -7.1069  -7.0577  -6.9278  -6.9040  -6.3898  -6.3597  -6.2974  -6.2803
    -5.5168  -5.4759  -5.2933  -5.2447  -4.6580  -4.6409  -4.5579  -4.5169
    -4.1490  -4.1238  -4.0346  -3.9668  -3.8249  -3.7745  -3.7063  -3.6528
    -3.0364  -3.0241  -2.9546  -2.9446  -2.8191  -2.8124  -2.7564  -2.7177
    -2.2781  -2.2492  -2.1138  -2.0889  -0.4090  -0.3954  -0.3586  -0.3368
     0.1768   0.1894   0.2372   0.2504   0.3583   0.3708   0.4809   0.4923
 TIME (initial):        0.0
* Atoms contributing density to the main cell
  Number of atoms:   17836
 
 TIME (set up the environment):        0.1
 DOCALC: T F T T
 ESAVE:       0.000000000000       0.000000000000       0.000000000000
* XDM: using PAW all-electron density reconstruction? T
 TIME (promolecular grid):       67.4
 TIME (calculation of b grid):       68.7
 TIME (calculation of volumes and moments):      475.7
 
+ Volume and moments
# All results in atomic units.
# i              V                  Vfree                 M1                  M2                  M3
  1        32.5807192430        39.0349749523         3.6429009285        49.0945358994       926.8535699367
  2        32.5807192430        39.0349749523         3.6429009285        49.0945358994       926.8535699367
  3        32.5807192430        39.0349749523         3.6429009285        49.0945358994       926.8535699367
  4        32.5807192430        39.0349749523         3.6429009285        49.0945358994       926.8535699367
  5        32.2357711161        39.0349749523         3.3738209861        46.0928540928       904.1157768613
  6        32.2357711161        39.0349749523         3.3738209861        46.0928540928       904.1157768613
  7        32.2357711161        39.0349749523         3.3738209861        46.0928540928       904.1157768613
  8        32.2357711161        39.0349749523         3.3738209861        46.0928540928       904.1157768613
  9        31.6954322607        39.0349749523         3.9866469121        51.4667584753       912.8982569524
 10        31.6954322607        39.0349749523         3.9866469121        51.4667584753       912.8982569524
 11        31.6954322608        39.0349749523         3.9866469121        51.4667584753       912.8982569524
 12        31.6954322607        39.0349749523         3.9866469121        51.4667584753       912.8982569524
 13        24.5891271152        30.0572485474         3.6767741717        36.6603971804       515.7968863167
 14        24.5891271152        30.0572485474         3.6767741717        36.6603971804       515.7968863167
 15        24.5891271152        30.0572485474         3.6767741717        36.6603971804       515.7968863167
 16        24.5891271152        30.0572485474         3.6767741717        36.6603971804       515.7968863167
 17        21.5148639415        23.7788846669         4.6115815116        33.9746014421       330.3550323968
 18        21.5148639415        23.7788846669         4.6115815116        33.9746014420       330.3550323968
 19        21.5148639415        23.7788846669         4.6115815116        33.9746014420       330.3550323968
 20        21.5148639415        23.7788846669         4.6115815116        33.9746014421       330.3550323968
 21        21.1146259391        23.7788846669         4.4071958875        32.3746288465       319.0060281640
 22        21.1146259391        23.7788846669         4.4071958875        32.3746288465       319.0060281640
 23        21.1146259391        23.7788846669         4.4071958875        32.3746288465       319.0060281640
 24        21.1146259391        23.7788846669         4.4071958875        32.3746288465       319.0060281640
 25         8.0192407188        10.4882987305         1.3942302097        13.6690279951       268.3389683657
 26         8.0192407188        10.4882987305         1.3942302097        13.6690279951       268.3389683657
 27         8.0192407188        10.4882987305         1.3942302097        13.6690279951       268.3389683657
 28         8.0192407188        10.4882987305         1.3942302097        13.6690279951       268.3389683657
 29         7.8041769567        10.4882987305         1.3587690914        13.1190768036       262.2906092262
 30         7.8041769567        10.4882987305         1.3587690914        13.1190768036       262.2906092262
 31         7.8041769567        10.4882987305         1.3587690914        13.1190768036       262.2906092261
 32         7.8041769567        10.4882987305         1.3587690914        13.1190768036       262.2906092261
 33         7.8864684194        10.4882987305         1.3553163559        13.1636380262       264.5639520550
 34         7.8864684194        10.4882987305         1.3553163559        13.1636380262       264.5639520550
 35         7.8864684194        10.4882987305         1.3553163559        13.1636380262       264.5639520550
 36         7.8864684194        10.4882987305         1.3553163559        13.1636380262       264.5639520550
 37         7.8824624647        10.4882987305         1.4420568357        12.7716903192       256.2021718959
 38         7.8824624647        10.4882987305         1.4420568357        12.7716903192       256.2021718959
 39         7.8824624647        10.4882987305         1.4420568357        12.7716903192       256.2021718959
 40         7.8824624647        10.4882987305         1.4420568357        12.7716903192       256.2021718959
 41         7.5923861484        10.4882987305         1.5041589516        13.2910302360       260.4456914204
 42         7.5923861484        10.4882987305         1.5041589516        13.2910302360       260.4456914204
 43         7.5923861484        10.4882987305         1.5041589516        13.2910302360       260.4456914204
 44         7.5923861484        10.4882987305         1.5041589516        13.2910302360       260.4456914204
 45         7.8157739208        10.4882987305         1.5160313742        13.5747624408       262.8449721614
 46         7.8157739208        10.4882987305         1.5160313742        13.5747624408       262.8449721614
 47         7.8157739208        10.4882987305         1.5160313742        13.5747624408       262.8449721614
 48         7.8157739208        10.4882987305         1.5160313742        13.5747624408       262.8449721614
 49         7.7090815917        10.4882987305         1.5133761503        13.4771355495       262.9169960754
 50         7.7090815917        10.4882987305         1.5133761503        13.4771355495       262.9169960754
 51         7.7090815917        10.4882987305         1.5133761503        13.4771355495       262.9169960754
 52         7.7090815917        10.4882987305         1.5133761503        13.4771355495       262.9169960754
 
+ Dispersion coefficients
# All results in atomic units.
# i   j              C6                  C8                  C10                   Rc                  Rvdw
  1   1        18.0564929150       730.0295756245     32150.0777716188         6.4968569439         6.8891224184
  2   1        18.0564929150       730.0295756245     32150.0777716176         6.4968569439         6.8891224184
  2   2        18.0564929150       730.0295756245     32150.0777716163         6.4968569439         6.8891224184
  3   1        18.0564929150       730.0295756245     32150.0777716173         6.4968569439         6.8891224184
  3   2        18.0564929150       730.0295756245     32150.0777716161         6.4968569439         6.8891224184
  3   3        18.0564929150       730.0295756245     32150.0777716158         6.4968569439         6.8891224184
  4   1        18.0564929150       730.0295756245     32150.0777716168         6.4968569439         6.8891224184
  4   2        18.0564929150       730.0295756245     32150.0777716156         6.4968569439         6.8891224184
  4   3        18.0564929150       730.0295756245     32150.0777716153         6.4968569439         6.8891224184
  4   4        18.0564929150       730.0295756244     32150.0777716148         6.4968569439         6.8891224184
  5   1        17.2751711376       703.2381160772     31408.1924202625         6.5310483430         6.8937724487
  5   2        17.2751711376       703.2381160772     31408.1924202612         6.5310483430         6.8937724487
  5   3        17.2751711376       703.2381160772     31408.1924202610         6.5310483430         6.8937724487
  5   4        17.2751711376       703.2381160771     31408.1924202605         6.5310483430         6.8937724487
  5   5        16.5457124639       678.1383306277     30706.2000969395         6.5648526331         6.8983698322
  6   1        17.2751711376       703.2381160772     31408.1924202629         6.5310483430         6.8937724487
  6   2        17.2751711376       703.2381160772     31408.1924202616         6.5310483430         6.8937724487
  6   3        17.2751711376       703.2381160772     31408.1924202614         6.5310483430         6.8937724487
  6   4        17.2751711376       703.2381160772     31408.1924202609         6.5310483430         6.8937724487
  6   5        16.5457124639       678.1383306277     30706.2000969399         6.5648526331         6.8983698322
  6   6        16.5457124639       678.1383306277     30706.2000969402         6.5648526331         6.8983698322
  7   1        17.2751711376       703.2381160772     31408.1924202632         6.5310483430         6.8937724487
  7   2        17.2751711376       703.2381160772     31408.1924202619         6.5310483430         6.8937724487
  7   3        17.2751711376       703.2381160772     31408.1924202617         6.5310483430         6.8937724487
  7   4        17.2751711376       703.2381160772     31408.1924202612         6.5310483430         6.8937724487
  7   5        16.5457124639       678.1383306277     30706.2000969402         6.5648526331         6.8983698322
  7   6        16.5457124639       678.1383306277     30706.2000969406         6.5648526331         6.8983698322
  7   7        16.5457124639       678.1383306277     30706.2000969409         6.5648526331         6.8983698322
  8   1        17.2751711376       703.2381160772     31408.1924202633         6.5310483430         6.8937724487
  8   2        17.2751711376       703.2381160772     31408.1924202621         6.5310483430         6.8937724487
  8   3        17.2751711376       703.2381160772     31408.1924202618         6.5310483430         6.8937724487
  8   4        17.2751711376       703.2381160772     31408.1924202613         6.5310483430         6.8937724487
  8   5        16.5457124639       678.1383306277     30706.2000969404         6.5648526331         6.8983698322
  8   6        16.5457124639       678.1383306277     30706.2000969407         6.5648526331         6.8983698322
  8   7        16.5457124639       678.1383306277     30706.2000969411         6.5648526331         6.8983698322
  8   8        16.5457124639       678.1383306277     30706.2000969413         6.5648526331         6.8983698322
  9   1        18.5985789766       736.1286527265     31572.1652303456         6.4196965418         6.8786286038
  9   2        18.5985789766       736.1286527264     31572.1652303444         6.4196965418         6.8786286038
  9   3        18.5985789766       736.1286527264     31572.1652303442         6.4196965418         6.8786286038
  9   4        18.5985789766       736.1286527264     31572.1652303437         6.4196965418         6.8786286038
  9   5        17.7593108973       707.8426371657     30807.1046521632         6.4547021122         6.8833893613
  9   6        17.7593108973       707.8426371657     30807.1046521636         6.4547021122         6.8833893613
  9   7        17.7593108973       707.8426371657     30807.1046521639         6.4547021122         6.8833893613
  9   8        17.7593108973       707.8426371657     30807.1046521640         6.4547021122         6.8833893613
  9   9        19.2233833162       744.5092941676     31063.8105791477         6.3409803735         6.8679232049
 10   1        18.5985789766       736.1286527264     31572.1652303448         6.4196965418         6.8786286038
 10   2        18.5985789766       736.1286527264     31572.1652303436         6.4196965418         6.8786286038
 10   3        18.5985789766       736.1286527264     31572.1652303435         6.4196965418         6.8786286038
 10   4        18.5985789766       736.1286527264     31572.1652303429         6.4196965418         6.8786286038
 10   5        17.7593108973       707.8426371656     30807.1046521625         6.4547021122         6.8833893613
 10   6        17.7593108973       707.8426371657     30807.1046521629         6.4547021122         6.8833893613
 10   7        17.7593108973       707.8426371657     30807.1046521632         6.4547021122         6.8833893613
 10   8        17.7593108973       707.8426371657     30807.1046521633         6.4547021122         6.8833893613
 10   9        19.2233833162       744.5092941676     31063.8105791470         6.3409803735         6.8679232049
 10  10        19.2233833162       744.5092941676     31063.8105791463         6.3409803735         6.8679232049
 11   1        18.5985789766       736.1286527265     31572.1652303452         6.4196965418         6.8786286038
 11   2        18.5985789766       736.1286527264     31572.1652303440         6.4196965418         6.8786286038
 11   3        18.5985789766       736.1286527264     31572.1652303438         6.4196965418         6.8786286038
 11   4        18.5985789766       736.1286527264     31572.1652303433         6.4196965418         6.8786286038
 11   5        17.7593108973       707.8426371657     30807.1046521629         6.4547021122         6.8833893613
 11   6        17.7593108973       707.8426371657     30807.1046521632         6.4547021122         6.8833893613
 11   7        17.7593108973       707.8426371657     30807.1046521635         6.4547021122         6.8833893613
 11   8        17.7593108973       707.8426371657     30807.1046521636         6.4547021122         6.8833893613
 11   9        19.2233833162       744.5092941676     31063.8105791473         6.3409803735         6.8679232049
 11  10        19.2233833162       744.5092941676     31063.8105791466         6.3409803735         6.8679232049
 11  11        19.2233833162       744.5092941676     31063.8105791469         6.3409803735         6.8679232049
 12   1        18.5985789766       736.1286527265     31572.1652303458         6.4196965418         6.8786286038
 12   2        18.5985789766       736.1286527265     31572.1652303446         6.4196965418         6.8786286038
 12   3        18.5985789766       736.1286527264     31572.1652303444         6.4196965418         6.8786286038
 12   4        18.5985789766       736.1286527264     31572.1652303438         6.4196965418         6.8786286038
 12   5        17.7593108973       707.8426371657     30807.1046521634         6.4547021122         6.8833893613
 12   6        17.7593108973       707.8426371657     30807.1046521638         6.4547021122         6.8833893613
 12   7        17.7593108973       707.8426371657     30807.1046521641         6.4547021122         6.8833893613
 12   8        17.7593108973       707.8426371657     30807.1046521642         6.4547021122         6.8833893613
 12   9        19.2233833162       744.5092941676     31063.8105791479         6.3409803735         6.8679232049
 12  10        19.2233833162       744.5092941676     31063.8105791472         6.3409803735         6.8679232049
 12  11        19.2233833162       744.5092941676     31063.8105791475         6.3409803735         6.8679232049
 12  12        19.2233833162       744.5092941677     31063.8105791481         6.3409803735         6.8679232049
 13   1        13.7667113042       484.1939758448     18637.3296639755         6.0668322585         6.8306390612
 13   2        13.7667113042       484.1939758448     18637.3296639749         6.0668322585         6.8306390612
 13   3        13.7667113042       484.1939758448     18637.3296639749         6.0668322585         6.8306390612
 13   4        13.7667113042       484.1939758448     18637.3296639745         6.0668322585         6.8306390612
 13   5        13.0654448869       463.1579866951     18143.3962239113         6.1057480817         6.8359316132
 13   6        13.0654448869       463.1579866951     18143.3962239115         6.1057480817         6.8359316132
 13   7        13.0654448869       463.1579866951     18143.3962239116         6.1057480817         6.8359316132
 13   8        13.0654448869       463.1579866951     18143.3962239116         6.1057480817         6.8359316132
 13   9        14.3868991781       493.7711271380     18403.3809195542         5.9812799357         6.8190039453
 13  10        14.3868991781       493.7711271380     18403.3809195539         5.9812799357         6.8190039453
 13  11        14.3868991781       493.7711271380     18403.3809195539         5.9812799357         6.8190039453
 13  12        14.3868991781       493.7711271380     18403.3809195543         5.9812799357         6.8190039453
 13  13        11.1640080772       333.9424325114     10926.1237268017         5.5941517124         6.7663545070
 14   1        13.7667113042       484.1939758448     18637.3296639757         6.0668322585         6.8306390612
 14   2        13.7667113042       484.1939758448     18637.3296639751         6.0668322585         6.8306390612
 14   3        13.7667113042       484.1939758448     18637.3296639750         6.0668322585         6.8306390612
 14   4        13.7667113042       484.1939758448     18637.3296639747         6.0668322585         6.8306390612
 14   5        13.0654448869       463.1579866951     18143.3962239115         6.1057480817         6.8359316132
 14   6        13.0654448869       463.1579866951     18143.3962239117         6.1057480817         6.8359316132
 14   7        13.0654448869       463.1579866951     18143.3962239118         6.1057480817         6.8359316132
 14   8        13.0654448869       463.1579866951     18143.3962239118         6.1057480817         6.8359316132
 14   9        14.3868991781       493.7711271380     18403.3809195544         5.9812799357         6.8190039453
 14  10        14.3868991781       493.7711271380     18403.3809195540         5.9812799357         6.8190039453
 14  11        14.3868991781       493.7711271380     18403.3809195541         5.9812799357         6.8190039453
 14  12        14.3868991781       493.7711271380     18403.3809195545         5.9812799357         6.8190039453
 14  13        11.1640080772       333.9424325114     10926.1237268018         5.5941517124         6.7663545070
 14  14        11.1640080772       333.9424325114     10926.1237268019         5.5941517124         6.7663545070
 15   1        13.7667113042       484.1939758448     18637.3296639761         6.0668322585         6.8306390612
 15   2        13.7667113042       484.1939758448     18637.3296639754         6.0668322585         6.8306390612
 15   3        13.7667113042       484.1939758448     18637.3296639754         6.0668322585         6.8306390612
 15   4        13.7667113042       484.1939758448     18637.3296639750         6.0668322585         6.8306390612
 15   5        13.0654448869       463.1579866952     18143.3962239118         6.1057480817         6.8359316132
 15   6        13.0654448869       463.1579866952     18143.3962239120         6.1057480817         6.8359316132
 15   7        13.0654448869       463.1579866952     18143.3962239122         6.1057480817         6.8359316132
 15   8        13.0654448869       463.1579866952     18143.3962239121         6.1057480817         6.8359316132
 15   9        14.3868991781       493.7711271380     18403.3809195547         5.9812799357         6.8190039453
 15  10        14.3868991781       493.7711271380     18403.3809195543         5.9812799357         6.8190039453
 15  11        14.3868991781       493.7711271380     18403.3809195544         5.9812799357         6.8190039453
 15  12        14.3868991781       493.7711271380     18403.3809195548         5.9812799357         6.8190039453
 15  13        11.1640080772       333.9424325114     10926.1237268020         5.5941517124         6.7663545070
 15  14        11.1640080772       333.9424325114     10926.1237268021         5.5941517124         6.7663545070
 15  15        11.1640080772       333.9424325114     10926.1237268022         5.5941517124         6.7663545070
 16   1        13.7667113042       484.1939758448     18637.3296639754         6.0668322585         6.8306390612
 16   2        13.7667113042       484.1939758448     18637.3296639748         6.0668322585         6.8306390612
 16   3        13.7667113042       484.1939758448     18637.3296639748         6.0668322585         6.8306390612
 16   4        13.7667113042       484.1939758448     18637.3296639744         6.0668322585         6.8306390612
 16   5        13.0654448869       463.1579866951     18143.3962239112         6.1057480817         6.8359316132
 16   6        13.0654448869       463.1579866951     18143.3962239114         6.1057480817         6.8359316132
 16   7        13.0654448869       463.1579866951     18143.3962239116         6.1057480817         6.8359316132
 16   8        13.0654448869       463.1579866951     18143.3962239115         6.1057480817         6.8359316132
 16   9        14.3868991781       493.7711271380     18403.3809195542         5.9812799357         6.8190039453
 16  10        14.3868991781       493.7711271380     18403.3809195538         5.9812799357         6.8190039453
 16  11        14.3868991781       493.7711271380     18403.3809195539         5.9812799357         6.8190039453
 16  12        14.3868991781       493.7711271380     18403.3809195542         5.9812799357         6.8190039453
 16  13        11.1640080772       333.9424325114     10926.1237268017         5.5941517124         6.7663545070
 16  14        11.1640080772       333.9424325114     10926.1237268018         5.5941517124         6.7663545070
 16  15        11.1640080772       333.9424325114     10926.1237268019         5.5941517124         6.7663545070
 16  16        11.1640080772       333.9424325114     10926.1237268017         5.5941517124         6.7663545070
 17   1        12.8317157825       401.1964974037     13718.7716115497         5.7191324782         6.7833518911
 17   2        12.8317157825       401.1964974037     13718.7716115493         5.7191324782         6.7833518911
 17   3        12.8317157825       401.1964974037     13718.7716115494         5.7191324782         6.7833518911
 17   4        12.8317157825       401.1964974037     13718.7716115491         5.7191324782         6.7833518911
 17   5        12.1011372453       381.7149247843     13335.0134197837         5.7628342691         6.7892953347
 17   6        12.1011372453       381.7149247843     13335.0134197839         5.7628342691         6.7892953347
 17   7        12.1011372453       381.7149247843     13335.0134197840         5.7628342691         6.7892953347
 17   8        12.1011372453       381.7149247843     13335.0134197839         5.7628342691         6.7892953347
 17   9        13.5668011365       412.6414527767     13576.4260173475         5.6251335099         6.7705680314
 17  10        13.5668011365       412.6414527767     13576.4260173473         5.6251335099         6.7705680314
 17  11        13.5668011365       412.6414527767     13576.4260173472         5.6251335099         6.7705680314
 17  12        13.5668011365       412.6414527767     13576.4260173476         5.6251335099         6.7705680314
 17  13        10.9589911496       285.0111237055      8025.9564602315         5.2028199367         6.7131333855
 17  14        10.9589911496       285.0111237055      8025.9564602316         5.2028199367         6.7131333855
 17  15        10.9589911496       285.0111237055      8025.9564602317         5.2028199367         6.7131333855
 17  16        10.9589911496       285.0111237055      8025.9564602315         5.2028199367         6.7131333855
 17  17        11.2911452006       249.5535362743      5809.3348655679         4.7629000649         6.6533042829
 18   1        12.8317157825       401.1964974037     13718.7716115497         5.7191324782         6.7833518911
 18   2        12.8317157825       401.1964974037     13718.7716115492         5.7191324782         6.7833518911
 18   3        12.8317157825       401.1964974037     13718.7716115493         5.7191324782         6.7833518911
 18   4        12.8317157825       401.1964974037     13718.7716115490         5.7191324782         6.7833518911
 18   5        12.1011372453       381.7149247843     13335.0134197837         5.7628342691         6.7892953347
 18   6        12.1011372453       381.7149247843     13335.0134197838         5.7628342691         6.7892953347
 18   7        12.1011372453       381.7149247843     13335.0134197839         5.7628342691         6.7892953347
 18   8        12.1011372453       381.7149247843     13335.0134197838         5.7628342691         6.7892953347
 18   9        13.5668011365       412.6414527767     13576.4260173474         5.6251335099         6.7705680314
 18  10        13.5668011365       412.6414527767     13576.4260173472         5.6251335099         6.7705680314
 18  11        13.5668011365       412.6414527767     13576.4260173472         5.6251335099         6.7705680314
 18  12        13.5668011365       412.6414527767     13576.4260173475         5.6251335099         6.7705680314
 18  13        10.9589911496       285.0111237055      8025.9564602314         5.2028199367         6.7131333855
 18  14        10.9589911496       285.0111237055      8025.9564602315         5.2028199367         6.7131333855
 18  15        10.9589911496       285.0111237055      8025.9564602316         5.2028199367         6.7131333855
 18  16        10.9589911496       285.0111237055      8025.9564602314         5.2028199367         6.7131333855
 18  17        11.2911452006       249.5535362743      5809.3348655679         4.7629000649         6.6533042829
 18  18        11.2911452006       249.5535362743      5809.3348655678         4.7629000649         6.6533042829
 19   1        12.8317157825       401.1964974037     13718.7716115496         5.7191324782         6.7833518911
 19   2        12.8317157825       401.1964974037     13718.7716115492         5.7191324782         6.7833518911
 19   3        12.8317157825       401.1964974037     13718.7716115493         5.7191324782         6.7833518911
 19   4        12.8317157825       401.1964974037     13718.7716115490         5.7191324782         6.7833518911
 19   5        12.1011372453       381.7149247843     13335.0134197836         5.7628342691         6.7892953347
 19   6        12.1011372453       381.7149247843     13335.0134197838         5.7628342691         6.7892953347
 19   7        12.1011372453       381.7149247843     13335.0134197839         5.7628342691         6.7892953347
 19   8        12.1011372453       381.7149247843     13335.0134197838         5.7628342691         6.7892953347
 19   9        13.5668011365       412.6414527767     13576.4260173474         5.6251335099         6.7705680314
 19  10        13.5668011365       412.6414527766     13576.4260173472         5.6251335099         6.7705680314
 19  11        13.5668011365       412.6414527767     13576.4260173471         5.6251335099         6.7705680314
 19  12        13.5668011365       412.6414527767     13576.4260173475         5.6251335099         6.7705680314
 19  13        10.9589911496       285.0111237055      8025.9564602314         5.2028199367         6.7131333855
 19  14        10.9589911496       285.0111237055      8025.9564602315         5.2028199367         6.7131333855
 19  15        10.9589911496       285.0111237055      8025.9564602316         5.2028199367         6.7131333855
 19  16        10.9589911496       285.0111237055      8025.9564602314         5.2028199367         6.7131333855
 19  17        11.2911452006       249.5535362743      5809.3348655679         4.7629000649         6.6533042829
 19  18        11.2911452006       249.5535362743      5809.3348655678         4.7629000649         6.6533042829
 19  19        11.2911452006       249.5535362743      5809.3348655679         4.7629000649         6.6533042829
 20   1        12.8317157825       401.1964974037     13718.7716115501         5.7191324782         6.7833518911
 20   2        12.8317157825       401.1964974037     13718.7716115497         5.7191324782         6.7833518911
 20   3        12.8317157825       401.1964974037     13718.7716115498         5.7191324782         6.7833518911
 20   4        12.8317157825       401.1964974037     13718.7716115495         5.7191324782         6.7833518911
 20   5        12.1011372453       381.7149247843     13335.0134197841         5.7628342691         6.7892953347
 20   6        12.1011372453       381.7149247843     13335.0134197843         5.7628342691         6.7892953347
 20   7        12.1011372453       381.7149247843     13335.0134197843         5.7628342691         6.7892953347
 20   8        12.1011372453       381.7149247843     13335.0134197843         5.7628342691         6.7892953347
 20   9        13.5668011365       412.6414527767     13576.4260173479         5.6251335099         6.7705680314
 20  10        13.5668011365       412.6414527767     13576.4260173477         5.6251335099         6.7705680314
 20  11        13.5668011365       412.6414527767     13576.4260173476         5.6251335099         6.7705680314
 20  12        13.5668011365       412.6414527767     13576.4260173480         5.6251335099         6.7705680314
 20  13        10.9589911496       285.0111237055      8025.9564602317         5.2028199367         6.7131333855
 20  14        10.9589911496       285.0111237055      8025.9564602318         5.2028199367         6.7131333855
 20  15        10.9589911496       285.0111237055      8025.9564602319         5.2028199367         6.7131333855
 20  16        10.9589911496       285.0111237055      8025.9564602317         5.2028199367         6.7131333855
 20  17        11.2911452006       249.5535362743      5809.3348655681         4.7629000649         6.6533042829
 20  18        11.2911452006       249.5535362743      5809.3348655680         4.7629000649         6.6533042829
 20  19        11.2911452006       249.5535362743      5809.3348655681         4.7629000649         6.6533042829
 20  20        11.2911452006       249.5535362743      5809.3348655683         4.7629000649         6.6533042829
 21   1        12.4986048730       390.3806622585     13366.1829935063         5.7195624058         6.7834103613
 21   2        12.4986048730       390.3806622585     13366.1829935058         5.7195624058         6.7834103613
 21   3        12.4986048730       390.3806622585     13366.1829935059         5.7195624058         6.7834103613
 21   4        12.4986048730       390.3806622585     13366.1829935056         5.7195624058         6.7834103613
 21   5        11.7911327967       371.5581288635     12996.5530478371         5.7632403099         6.7893505562
 21   6        11.7911327967       371.5581288635     12996.5530478373         5.7632403099         6.7893505562
 21   7        11.7911327967       371.5581288635     12996.5530478373         5.7632403099         6.7893505562
 21   8        11.7911327967       371.5581288635     12996.5530478373         5.7632403099         6.7893505562
 21   9        13.2060125052       401.2444034468     13219.8048810109         5.6256498696         6.7706382563
 21  10        13.2060125052       401.2444034468     13219.8048810107         5.6256498696         6.7706382563
 21  11        13.2060125052       401.2444034468     13219.8048810107         5.6256498696         6.7706382563
 21  12        13.2060125052       401.2444034469     13219.8048810110         5.6256498696         6.7706382563
 21  13        10.6430459932       276.4530333978      7800.9434724178         5.2039409896         6.7132858487
 21  14        10.6430459932       276.4530333978      7800.9434724179         5.2039409896         6.7132858487
 21  15        10.6430459932       276.4530333978      7800.9434724180         5.2039409896         6.7132858487
 21  16        10.6430459932       276.4530333978      7800.9434724178         5.2039409896         6.7132858487
 21  17        10.9339816560       241.3089982730      5634.6766080506         4.7648744097         6.6535727938
 21  18        10.9339816560       241.3089982730      5634.6766080506         4.7648744097         6.6535727938
 21  19        10.9339816560       241.3089982730      5634.6766080506         4.7648744097         6.6535727938
 21  20        10.9339816560       241.3089982730      5634.6766080508         4.7648744097         6.6535727938
 21  21        10.5899825644       233.3774788519      5466.2390059522         4.7668550170         6.6538421564
 22   1        12.4986048730       390.3806622585     13366.1829935064         5.7195624058         6.7834103613
 22   2        12.4986048730       390.3806622585     13366.1829935060         5.7195624058         6.7834103613
 22   3        12.4986048730       390.3806622585     13366.1829935060         5.7195624058         6.7834103613
 22   4        12.4986048730       390.3806622585     13366.1829935058         5.7195624058         6.7834103613
 22   5        11.7911327967       371.5581288635     12996.5530478372         5.7632403099         6.7893505562
 22   6        11.7911327967       371.5581288635     12996.5530478374         5.7632403099         6.7893505562
 22   7        11.7911327967       371.5581288635     12996.5530478374         5.7632403099         6.7893505562
 22   8        11.7911327967       371.5581288635     12996.5530478374         5.7632403099         6.7893505562
 22   9        13.2060125052       401.2444034468     13219.8048810111         5.6256498696         6.7706382563
 22  10        13.2060125052       401.2444034468     13219.8048810108         5.6256498696         6.7706382563
 22  11        13.2060125052       401.2444034468     13219.8048810108         5.6256498696         6.7706382563
 22  12        13.2060125052       401.2444034469     13219.8048810111         5.6256498696         6.7706382563
 22  13        10.6430459932       276.4530333978      7800.9434724179         5.2039409896         6.7132858487
 22  14        10.6430459932       276.4530333978      7800.9434724180         5.2039409896         6.7132858487
 22  15        10.6430459932       276.4530333978      7800.9434724181         5.2039409896         6.7132858487
 22  16        10.6430459932       276.4530333978      7800.9434724179         5.2039409896         6.7132858487
 22  17        10.9339816560       241.3089982730      5634.6766080507         4.7648744097         6.6535727938
 22  18        10.9339816560       241.3089982730      5634.6766080506         4.7648744097         6.6535727938
 22  19        10.9339816560       241.3089982730      5634.6766080507         4.7648744097         6.6535727938
 22  20        10.9339816560       241.3089982730      5634.6766080509         4.7648744097         6.6535727938
 22  21        10.5899825644       233.3774788519      5466.2390059522         4.7668550170         6.6538421564
 22  22        10.5899825644       233.3774788519      5466.2390059523         4.7668550170         6.6538421564
 23   1        12.4986048730       390.3806622585     13366.1829935062         5.7195624058         6.7834103613
 23   2        12.4986048730       390.3806622585     13366.1829935057         5.7195624058         6.7834103613
 23   3        12.4986048730       390.3806622585     13366.1829935058         5.7195624058         6.7834103613
 23   4        12.4986048730       390.3806622585     13366.1829935055         5.7195624058         6.7834103613
 23   5        11.7911327967       371.5581288635     12996.5530478370         5.7632403099         6.7893505562
 23   6        11.7911327967       371.5581288635     12996.5530478372         5.7632403099         6.7893505562
 23   7        11.7911327967       371.5581288635     12996.5530478372         5.7632403099         6.7893505562
 23   8        11.7911327967       371.5581288635     12996.5530478372         5.7632403099         6.7893505562
 23   9        13.2060125052       401.2444034468     13219.8048810109         5.6256498696         6.7706382563
 23  10        13.2060125052       401.2444034468     13219.8048810106         5.6256498696         6.7706382563
 23  11        13.2060125052       401.2444034468     13219.8048810106         5.6256498696         6.7706382563
 23  12        13.2060125052       401.2444034468     13219.8048810109         5.6256498696         6.7706382563
 23  13        10.6430459932       276.4530333978      7800.9434724178         5.2039409896         6.7132858487
 23  14        10.6430459932       276.4530333978      7800.9434724179         5.2039409896         6.7132858487
 23  15        10.6430459932       276.4530333978      7800.9434724180         5.2039409896         6.7132858487
 23  16        10.6430459932       276.4530333978      7800.9434724178         5.2039409896         6.7132858487
 23  17        10.9339816560       241.3089982730      5634.6766080507         4.7648744097         6.6535727938
 23  18        10.9339816560       241.3089982730      5634.6766080506         4.7648744097         6.6535727938
 23  19        10.9339816560       241.3089982730      5634.6766080506         4.7648744097         6.6535727938
 23  20        10.9339816560       241.3089982730      5634.6766080508         4.7648744097         6.6535727938
 23  21        10.5899825644       233.3774788519      5466.2390059522         4.7668550170         6.6538421564
 23  22        10.5899825644       233.3774788519      5466.2390059523         4.7668550170         6.6538421564
 23  23        10.5899825644       233.3774788519      5466.2390059522         4.7668550170         6.6538421564
 24   1        12.4986048730       390.3806622585     13366.1829935064         5.7195624058         6.7834103613
 24   2        12.4986048730       390.3806622585     13366.1829935060         5.7195624058         6.7834103613
 24   3        12.4986048730       390.3806622585     13366.1829935060         5.7195624058         6.7834103613
 24   4        12.4986048730       390.3806622585     13366.1829935058         5.7195624058         6.7834103613
 24   5        11.7911327967       371.5581288635     12996.5530478372         5.7632403099         6.7893505562
 24   6        11.7911327967       371.5581288635     12996.5530478374         5.7632403099         6.7893505562
 24   7        11.7911327967       371.5581288635     12996.5530478374         5.7632403099         6.7893505562
 24   8        11.7911327967       371.5581288635     12996.5530478374         5.7632403099         6.7893505562
 24   9        13.2060125052       401.2444034468     13219.8048810111         5.6256498696         6.7706382563
 24  10        13.2060125052       401.2444034468     13219.8048810108         5.6256498696         6.7706382563
 24  11        13.2060125052       401.2444034468     13219.8048810108         5.6256498696         6.7706382563
 24  12        13.2060125052       401.2444034468     13219.8048810111         5.6256498696         6.7706382563
 24  13        10.6430459932       276.4530333978      7800.9434724180         5.2039409896         6.7132858487
 24  14        10.6430459932       276.4530333978      7800.9434724180         5.2039409896         6.7132858487
 24  15        10.6430459932       276.4530333978      7800.9434724181         5.2039409896         6.7132858487
 24  16        10.6430459932       276.4530333978      7800.9434724180         5.2039409896         6.7132858487
 24  17        10.9339816560       241.3089982730      5634.6766080508         4.7648744097         6.6535727938
 24  18        10.9339816560       241.3089982730      5634.6766080507         4.7648744097         6.6535727938
 24  19        10.9339816560       241.3089982730      5634.6766080507         4.7648744097         6.6535727938
 24  20        10.9339816560       241.3089982730      5634.6766080509         4.7648744097         6.6535727938
 24  21        10.5899825644       233.3774788519      5466.2390059523         4.7668550170         6.6538421564
 24  22        10.5899825644       233.3774788519      5466.2390059524         4.7668550170         6.6538421564
 24  23        10.5899825644       233.3774788519      5466.2390059523         4.7668550170         6.6538421564
 24  24        10.5899825644       233.3774788519      5466.2390059525         4.7668550170         6.6538421564
 25   1         6.5729434397       229.5347359009      9522.3052105788         6.1732511091         6.8451120249
 25   2         6.5729434397       229.5347359009      9522.3052105785         6.1732511091         6.8451120249
 25   3         6.5729434397       229.5347359009      9522.3052105784         6.1732511091         6.8451120249
 25   4         6.5729434397       229.5347359009      9522.3052105783         6.1732511091         6.8451120249
 25   5         6.2783902240       220.9922193212      9313.6217231047         6.2102769933         6.8501475452
 25   6         6.2783902240       220.9922193212      9313.6217231048         6.2102769933         6.8501475452
 25   7         6.2783902240       220.9922193212      9313.6217231049         6.2102769933         6.8501475452
 25   8         6.2783902240       220.9922193212      9313.6217231050         6.2102769933         6.8501475452
 25   9         6.7897825472       231.3324652152      9332.4830793930         6.0924728230         6.8341261780
 25  10         6.7897825472       231.3324652151      9332.4830793928         6.0924728230         6.8341261780
 25  11         6.7897825472       231.3324652152      9332.4830793929         6.0924728230         6.8341261780
 25  12         6.7897825472       231.3324652152      9332.4830793930         6.0924728230         6.8341261780
 25  13         5.0720026527       150.4467656376      5457.7984350314         5.7322632278         6.7851376731
 25  14         5.0720026527       150.4467656376      5457.7984350314         5.7322632278         6.7851376731
 25  15         5.0720026527       150.4467656376      5457.7984350315         5.7322632278         6.7851376731
 25  16         5.0720026527       150.4467656376      5457.7984350314         5.7322632278         6.7851376731
 25  17         4.7733376244       122.9461224594      3969.3104519167         5.3756975531         6.7366447413
 25  18         4.7733376244       122.9461224594      3969.3104519166         5.3756975531         6.7366447413
 25  19         4.7733376244       122.9461224594      3969.3104519166         5.3756975531         6.7366447413
 25  20         4.7733376244       122.9461224594      3969.3104519168         5.3756975531         6.7366447413
 25  21         4.6469190612       119.5409681551      3867.0383456401         5.3768538122         6.7368019925
 25  22         4.6469190612       119.5409681551      3867.0383456401         5.3768538122         6.7368019925
 25  23         4.6469190612       119.5409681551      3867.0383456400         5.3768538122         6.7368019925
 25  24         4.6469190612       119.5409681551      3867.0383456401         5.3768538122         6.7368019925
 25  25         2.3984180978        70.5422473870      2814.6698164038         5.8643087621         6.8030958657
 26   1         6.5729434397       229.5347359009      9522.3052105786         6.1732511091         6.8451120249
 26   2         6.5729434397       229.5347359009      9522.3052105782         6.1732511091         6.8451120249
 26   3         6.5729434397       229.5347359009      9522.3052105782         6.1732511091         6.8451120249
 26   4         6.5729434397       229.5347359009      9522.3052105780         6.1732511091         6.8451120249
 26   5         6.2783902240       220.9922193212      9313.6217231045         6.2102769933         6.8501475452
 26   6         6.2783902240       220.9922193212      9313.6217231046         6.2102769933         6.8501475452
 26   7         6.2783902240       220.9922193212      9313.6217231047         6.2102769933         6.8501475452
 26   8         6.2783902240       220.9922193212      9313.6217231047         6.2102769933         6.8501475452
 26   9         6.7897825472       231.3324652152      9332.4830793927         6.0924728230         6.8341261780
 26  10         6.7897825472       231.3324652151      9332.4830793925         6.0924728230         6.8341261780
 26  11         6.7897825472       231.3324652151      9332.4830793926         6.0924728230         6.8341261780
 26  12         6.7897825472       231.3324652152      9332.4830793928         6.0924728230         6.8341261780
 26  13         5.0720026527       150.4467656376      5457.7984350312         5.7322632278         6.7851376731
 26  14         5.0720026527       150.4467656376      5457.7984350313         5.7322632278         6.7851376731
 26  15         5.0720026527       150.4467656376      5457.7984350314         5.7322632278         6.7851376731
 26  16         5.0720026527       150.4467656376      5457.7984350312         5.7322632278         6.7851376731
 26  17         4.7733376244       122.9461224594      3969.3104519166         5.3756975531         6.7366447413
 26  18         4.7733376244       122.9461224594      3969.3104519165         5.3756975531         6.7366447413
 26  19         4.7733376244       122.9461224594      3969.3104519165         5.3756975531         6.7366447413
 26  20         4.7733376244       122.9461224594      3969.3104519167         5.3756975531         6.7366447413
 26  21         4.6469190612       119.5409681551      3867.0383456400         5.3768538122         6.7368019925
 26  22         4.6469190612       119.5409681551      3867.0383456400         5.3768538122         6.7368019925
 26  23         4.6469190612       119.5409681551      3867.0383456399         5.3768538122         6.7368019925
 26  24         4.6469190612       119.5409681551      3867.0383456400         5.3768538122         6.7368019925
 26  25         2.3984180978        70.5422473870      2814.6698164037         5.8643087621         6.8030958657
 26  26         2.3984180978        70.5422473870      2814.6698164036         5.8643087621         6.8030958657
 27   1         6.5729434397       229.5347359009      9522.3052105787         6.1732511091         6.8451120249
 27   2         6.5729434397       229.5347359009      9522.3052105783         6.1732511091         6.8451120249
 27   3         6.5729434397       229.5347359009      9522.3052105783         6.1732511091         6.8451120249
 27   4         6.5729434397       229.5347359009      9522.3052105781         6.1732511091         6.8451120249
 27   5         6.2783902240       220.9922193212      9313.6217231046         6.2102769933         6.8501475452
 27   6         6.2783902240       220.9922193212      9313.6217231047         6.2102769933         6.8501475452
 27   7         6.2783902240       220.9922193212      9313.6217231048         6.2102769933         6.8501475452
 27   8         6.2783902240       220.9922193212      9313.6217231048         6.2102769933         6.8501475452
 27   9         6.7897825472       231.3324652152      9332.4830793928         6.0924728230         6.8341261780
 27  10         6.7897825472       231.3324652151      9332.4830793926         6.0924728230         6.8341261780
 27  11         6.7897825472       231.3324652152      9332.4830793927         6.0924728230         6.8341261780
 27  12         6.7897825472       231.3324652152      9332.4830793929         6.0924728230         6.8341261780
 27  13         5.0720026527       150.4467656376      5457.7984350313         5.7322632278         6.7851376731
 27  14         5.0720026527       150.4467656376      5457.7984350314         5.7322632278         6.7851376731
 27  15         5.0720026527       150.4467656376      5457.7984350315         5.7322632278         6.7851376731
 27  16         5.0720026527       150.4467656376      5457.7984350313         5.7322632278         6.7851376731
 27  17         4.7733376244       122.9461224594      3969.3104519166         5.3756975531         6.7366447413
 27  18         4.7733376244       122.9461224594      3969.3104519166         5.3756975531         6.7366447413
 27  19         4.7733376244       122.9461224594      3969.3104519166         5.3756975531         6.7366447413
 27  20         4.7733376244       122.9461224594      3969.3104519167         5.3756975531         6.7366447413
 27  21         4.6469190612       119.5409681551      3867.0383456400         5.3768538122         6.7368019925
 27  22         4.6469190612       119.5409681551      3867.0383456401         5.3768538122         6.7368019925
 27  23         4.6469190612       119.5409681551      3867.0383456400         5.3768538122         6.7368019925
 27  24         4.6469190612       119.5409681551      3867.0383456401         5.3768538122         6.7368019925
 27  25         2.3984180978        70.5422473870      2814.6698164037         5.8643087621         6.8030958657
 27  26         2.3984180978        70.5422473870      2814.6698164036         5.8643087621         6.8030958657
 27  27         2.3984180978        70.5422473870      2814.6698164037         5.8643087621         6.8030958657
 28   1         6.5729434397       229.5347359009      9522.3052105787         6.1732511091         6.8451120249
 28   2         6.5729434397       229.5347359009      9522.3052105784         6.1732511091         6.8451120249
 28   3         6.5729434397       229.5347359009      9522.3052105783         6.1732511091         6.8451120249
 28   4         6.5729434397       229.5347359009      9522.3052105782         6.1732511091         6.8451120249
 28   5         6.2783902240       220.9922193212      9313.6217231046         6.2102769933         6.8501475452
 28   6         6.2783902240       220.9922193212      9313.6217231047         6.2102769933         6.8501475452
 28   7         6.2783902240       220.9922193212      9313.6217231048         6.2102769933         6.8501475452
 28   8         6.2783902240       220.9922193212      9313.6217231049         6.2102769933         6.8501475452
 28   9         6.7897825472       231.3324652152      9332.4830793929         6.0924728230         6.8341261780
 28  10         6.7897825472       231.3324652151      9332.4830793927         6.0924728230         6.8341261780
 28  11         6.7897825472       231.3324652152      9332.4830793928         6.0924728230         6.8341261780
 28  12         6.7897825472       231.3324652152      9332.4830793929         6.0924728230         6.8341261780
 28  13         5.0720026527       150.4467656376      5457.7984350314         5.7322632278         6.7851376731
 28  14         5.0720026527       150.4467656376      5457.7984350314         5.7322632278         6.7851376731
 28  15         5.0720026527       150.4467656376      5457.7984350315         5.7322632278         6.7851376731
 28  16         5.0720026527       150.4467656376      5457.7984350313         5.7322632278         6.7851376731
 28  17         4.7733376244       122.9461224594      3969.3104519167         5.3756975531         6.7366447413
 28  18         4.7733376244       122.9461224594      3969.3104519167         5.3756975531         6.7366447413
 28  19         4.7733376244       122.9461224594      3969.3104519167         5.3756975531         6.7366447413
 28  20         4.7733376244       122.9461224594      3969.3104519168         5.3756975531         6.7366447413
 28  21         4.6469190612       119.5409681551      3867.0383456401         5.3768538122         6.7368019925
 28  22         4.6469190612       119.5409681551      3867.0383456401         5.3768538122         6.7368019925
 28  23         4.6469190612       119.5409681551      3867.0383456400         5.3768538122         6.7368019925
 28  24         4.6469190612       119.5409681551      3867.0383456401         5.3768538122         6.7368019925
 28  25         2.3984180978        70.5422473870      2814.6698164037         5.8643087621         6.8030958657
 28  26         2.3984180978        70.5422473870      2814.6698164037         5.8643087621         6.8030958657
 28  27         2.3984180978        70.5422473870      2814.6698164037         5.8643087621         6.8030958657
 28  28         2.3984180978        70.5422473870      2814.6698164037         5.8643087621         6.8030958657
 29   1         6.4009909876       222.1005108242      9226.5725668357         6.1658295109         6.8441026875
 29   2         6.4009909876       222.1005108242      9226.5725668354         6.1658295109         6.8441026875
 29   3         6.4009909876       222.1005108242      9226.5725668353         6.1658295109         6.8441026875
 29   4         6.4009909876       222.1005108242      9226.5725668352         6.1658295109         6.8441026875
 29   5         6.1140005151       213.8405297483      9024.5188483503         6.2028854847         6.8491423000
 29   6         6.1140005151       213.8405297483      9024.5188483504         6.2028854847         6.8491423000
 29   7         6.1140005151       213.8405297483      9024.5188483505         6.2028854847         6.8491423000
 29   8         6.1140005151       213.8405297483      9024.5188483505         6.2028854847         6.8491423000
 29   9         6.6124338583       223.8134092896      9042.9004324696         6.0851349173         6.8331282228
 29  10         6.6124338583       223.8134092896      9042.9004324694         6.0851349173         6.8331282228
 29  11         6.6124338583       223.8134092896      9042.9004324695         6.0851349173         6.8331282228
 29  12         6.6124338583       223.8134092896      9042.9004324696         6.0851349173         6.8331282228
 29  13         4.9401828613       145.4334752772      5290.7990881527         5.7259812346         6.7842833220
 29  14         4.9401828613       145.4334752772      5290.7990881528         5.7259812346         6.7842833220
 29  15         4.9401828613       145.4334752772      5290.7990881529         5.7259812346         6.7842833220
 29  16         4.9401828613       145.4334752772      5290.7990881527         5.7259812346         6.7842833220
 29  17         4.6499417519       118.7294245177      3850.5944571159         5.3707798648         6.7359759357
 29  18         4.6499417519       118.7294245177      3850.5944571159         5.3707798648         6.7359759357
 29  19         4.6499417519       118.7294245177      3850.5944571159         5.3707798648         6.7359759357
 29  20         4.6499417519       118.7294245177      3850.5944571160         5.3707798648         6.7359759357
 29  21         4.5267551057       115.4388770800      3751.4232883410         5.3719726514         6.7361381547
 29  22         4.5267551057       115.4388770800      3751.4232883410         5.3719726514         6.7361381547
 29  23         4.5267551057       115.4388770800      3751.4232883409         5.3719726514         6.7361381547
 29  24         4.5267551057       115.4388770800      3751.4232883410         5.3719726514         6.7361381547
 29  25         2.3357550540        68.1775896046      2729.4826142679         5.8589001875         6.8023602996
 29  26         2.3357550540        68.1775896046      2729.4826142678         5.8589001875         6.8023602996
 29  27         2.3357550540        68.1775896046      2729.4826142679         5.8589001875         6.8023602996
 29  28         2.3357550540        68.1775896046      2729.4826142679         5.8589001875         6.8023602996
 29  29         2.2747303454        65.8883741872      2647.0385242697         5.8536306087         6.8016436369
 30   1         6.4009909876       222.1005108242      9226.5725668360         6.1658295109         6.8441026875
 30   2         6.4009909876       222.1005108242      9226.5725668356         6.1658295109         6.8441026875
 30   3         6.4009909876       222.1005108242      9226.5725668356         6.1658295109         6.8441026875
 30   4         6.4009909876       222.1005108242      9226.5725668355         6.1658295109         6.8441026875
 30   5         6.1140005151       213.8405297483      9024.5188483506         6.2028854847         6.8491423000
 30   6         6.1140005151       213.8405297483      9024.5188483507         6.2028854847         6.8491423000
 30   7         6.1140005151       213.8405297483      9024.5188483508         6.2028854847         6.8491423000
 30   8         6.1140005151       213.8405297483      9024.5188483508         6.2028854847         6.8491423000
 30   9         6.6124338583       223.8134092896      9042.9004324698         6.0851349173         6.8331282228
 30  10         6.6124338583       223.8134092896      9042.9004324697         6.0851349173         6.8331282228
 30  11         6.6124338583       223.8134092896      9042.9004324697         6.0851349173         6.8331282228
 30  12         6.6124338583       223.8134092896      9042.9004324699         6.0851349173         6.8331282228
 30  13         4.9401828613       145.4334752772      5290.7990881529         5.7259812346         6.7842833220
 30  14         4.9401828613       145.4334752772      5290.7990881529         5.7259812346         6.7842833220
 30  15         4.9401828613       145.4334752772      5290.7990881530         5.7259812346         6.7842833220
 30  16         4.9401828613       145.4334752772      5290.7990881528         5.7259812346         6.7842833220
 30  17         4.6499417519       118.7294245177      3850.5944571160         5.3707798648         6.7359759357
 30  18         4.6499417519       118.7294245177      3850.5944571160         5.3707798648         6.7359759357
 30  19         4.6499417519       118.7294245177      3850.5944571160         5.3707798648         6.7359759357
[...]
            =  -6.938617884662E-04   1.452937156620E-04  -1.794340047420E-05  Ry/bohr
  Fvdw (11) =   3.469308942331E-04  -7.264685783099E-05  -8.971700237100E-06  Hartree/bohr
            =   6.938617884662E-04  -1.452937156620E-04  -1.794340047420E-05  Ry/bohr
  Fvdw (12) =   3.469308942331E-04   7.264685783098E-05   8.971700237102E-06  Hartree/bohr
            =   6.938617884662E-04   1.452937156620E-04   1.794340047420E-05  Ry/bohr
  Fvdw (13) =   1.701061069800E-04   4.767269438170E-05  -8.106453302176E-05  Hartree/bohr
            =   3.402122139599E-04   9.534538876340E-05  -1.621290660435E-04  Ry/bohr
  Fvdw (14) =   1.701061069800E-04  -4.767269438170E-05   8.106453302176E-05  Hartree/bohr
            =   3.402122139599E-04  -9.534538876339E-05   1.621290660435E-04  Ry/bohr
  Fvdw (15) =  -1.701061069800E-04   4.767269438169E-05   8.106453302176E-05  Hartree/bohr
            =  -3.402122139599E-04   9.534538876339E-05   1.621290660435E-04  Ry/bohr
  Fvdw (16) =  -1.701061069800E-04  -4.767269438170E-05  -8.106453302176E-05  Hartree/bohr
            =  -3.402122139599E-04  -9.534538876340E-05  -1.621290660435E-04  Ry/bohr
  Fvdw (17) =   1.068987043799E-04  -4.015958833283E-05   3.804346709510E-05  Hartree/bohr
            =   2.137974087599E-04  -8.031917666566E-05   7.608693419020E-05  Ry/bohr
  Fvdw (18) =   1.068987043800E-04   4.015958833284E-05  -3.804346709510E-05  Hartree/bohr
            =   2.137974087599E-04   8.031917666567E-05  -7.608693419020E-05  Ry/bohr
  Fvdw (19) =  -1.068987043800E-04  -4.015958833283E-05  -3.804346709510E-05  Hartree/bohr
            =  -2.137974087599E-04  -8.031917666567E-05  -7.608693419019E-05  Ry/bohr
  Fvdw (20) =  -1.068987043800E-04   4.015958833283E-05   3.804346709510E-05  Hartree/bohr
            =  -2.137974087599E-04   8.031917666566E-05   7.608693419020E-05  Ry/bohr
  Fvdw (21) =  -6.003794760962E-05   5.054549705902E-05   4.143654243596E-06  Hartree/bohr
            =  -1.200758952192E-04   1.010909941180E-04   8.287308487192E-06  Ry/bohr
  Fvdw (22) =  -6.003794760963E-05  -5.054549705902E-05  -4.143654243594E-06  Hartree/bohr
            =  -1.200758952193E-04  -1.010909941180E-04  -8.287308487189E-06  Ry/bohr
  Fvdw (23) =   6.003794760963E-05   5.054549705901E-05  -4.143654243597E-06  Hartree/bohr
            =   1.200758952193E-04   1.010909941180E-04  -8.287308487193E-06  Ry/bohr
  Fvdw (24) =   6.003794760962E-05  -5.054549705902E-05   4.143654243595E-06  Hartree/bohr
            =   1.200758952192E-04  -1.010909941180E-04   8.287308487189E-06  Ry/bohr
  Fvdw (25) =   6.784976452483E-05  -4.690973090988E-05  -5.281108468582E-05  Hartree/bohr
            =   1.356995290497E-04  -9.381946181975E-05  -1.056221693716E-04  Ry/bohr
  Fvdw (26) =   6.784976452483E-05   4.690973090988E-05   5.281108468582E-05  Hartree/bohr
            =   1.356995290497E-04   9.381946181976E-05   1.056221693716E-04  Ry/bohr
  Fvdw (27) =  -6.784976452483E-05  -4.690973090988E-05   5.281108468582E-05  Hartree/bohr
            =  -1.356995290497E-04  -9.381946181975E-05   1.056221693716E-04  Ry/bohr
  Fvdw (28) =  -6.784976452483E-05   4.690973090988E-05  -5.281108468582E-05  Hartree/bohr
            =  -1.356995290497E-04   9.381946181976E-05  -1.056221693716E-04  Ry/bohr
  Fvdw (29) =   3.544869576346E-05   3.371647765653E-05  -2.641150643821E-05  Hartree/bohr
            =   7.089739152693E-05   6.743295531306E-05  -5.282301287641E-05  Ry/bohr
  Fvdw (30) =   3.544869576346E-05  -3.371647765653E-05   2.641150643821E-05  Hartree/bohr
            =   7.089739152693E-05  -6.743295531306E-05   5.282301287641E-05  Ry/bohr
  Fvdw (31) =  -3.544869576346E-05   3.371647765653E-05   2.641150643821E-05  Hartree/bohr
            =  -7.089739152692E-05   6.743295531306E-05   5.282301287641E-05  Ry/bohr
  Fvdw (32) =  -3.544869576346E-05  -3.371647765653E-05  -2.641150643821E-05  Hartree/bohr
            =  -7.089739152692E-05  -6.743295531307E-05  -5.282301287641E-05  Ry/bohr
  Fvdw (33) =   2.642457612079E-05   2.003266821259E-05  -3.312247791548E-05  Hartree/bohr
            =   5.284915224158E-05   4.006533642518E-05  -6.624495583096E-05  Ry/bohr
  Fvdw (34) =   2.642457612079E-05  -2.003266821259E-05   3.312247791548E-05  Hartree/bohr
            =   5.284915224159E-05  -4.006533642518E-05   6.624495583096E-05  Ry/bohr
  Fvdw (35) =  -2.642457612079E-05   2.003266821259E-05   3.312247791548E-05  Hartree/bohr
            =  -5.284915224159E-05   4.006533642517E-05   6.624495583096E-05  Ry/bohr
  Fvdw (36) =  -2.642457612080E-05  -2.003266821259E-05  -3.312247791548E-05  Hartree/bohr
            =  -5.284915224159E-05  -4.006533642519E-05  -6.624495583096E-05  Ry/bohr
  Fvdw (37) =   2.130665715007E-05   1.075865097983E-04   2.588931577015E-05  Hartree/bohr
            =   4.261331430013E-05   2.151730195966E-04   5.177863154029E-05  Ry/bohr
  Fvdw (38) =   2.130665715006E-05  -1.075865097983E-04  -2.588931577015E-05  Hartree/bohr
            =   4.261331430013E-05  -2.151730195965E-04  -5.177863154030E-05  Ry/bohr
  Fvdw (39) =  -2.130665715007E-05   1.075865097983E-04  -2.588931577015E-05  Hartree/bohr
            =  -4.261331430013E-05   2.151730195965E-04  -5.177863154029E-05  Ry/bohr
  Fvdw (40) =  -2.130665715007E-05  -1.075865097983E-04   2.588931577015E-05  Hartree/bohr
            =  -4.261331430013E-05  -2.151730195966E-04   5.177863154029E-05  Ry/bohr
  Fvdw (41) =  -7.135282251428E-05  -2.730129639638E-06  -2.566219204965E-05  Hartree/bohr
            =  -1.427056450286E-04  -5.460259279275E-06  -5.132438409931E-05  Ry/bohr
  Fvdw (42) =  -7.135282251428E-05   2.730129639640E-06   2.566219204965E-05  Hartree/bohr
            =  -1.427056450286E-04   5.460259279280E-06   5.132438409931E-05  Ry/bohr
  Fvdw (43) =   7.135282251428E-05  -2.730129639640E-06   2.566219204965E-05  Hartree/bohr
            =   1.427056450286E-04  -5.460259279280E-06   5.132438409931E-05  Ry/bohr
  Fvdw (44) =   7.135282251428E-05   2.730129639639E-06  -2.566219204965E-05  Hartree/bohr
            =   1.427056450286E-04   5.460259279278E-06  -5.132438409931E-05  Ry/bohr
  Fvdw (45) =  -8.000134131473E-05  -3.446215853426E-06   1.984802199465E-05  Hartree/bohr
            =  -1.600026826295E-04  -6.892431706852E-06   3.969604398931E-05  Ry/bohr
  Fvdw (46) =  -8.000134131473E-05   3.446215853428E-06  -1.984802199465E-05  Hartree/bohr
            =  -1.600026826295E-04   6.892431706855E-06  -3.969604398931E-05  Ry/bohr
  Fvdw (47) =   8.000134131473E-05  -3.446215853429E-06  -1.984802199465E-05  Hartree/bohr
            =   1.600026826295E-04  -6.892431706858E-06  -3.969604398931E-05  Ry/bohr
  Fvdw (48) =   8.000134131473E-05   3.446215853428E-06   1.984802199465E-05  Hartree/bohr
            =   1.600026826295E-04   6.892431706857E-06   3.969604398931E-05  Ry/bohr
  Fvdw (49) =  -3.106099477319E-05  -8.414988790156E-05   4.978305214503E-06  Hartree/bohr
            =  -6.212198954637E-05  -1.682997758031E-04   9.956610429007E-06  Ry/bohr
  Fvdw (50) =  -3.106099477318E-05   8.414988790156E-05  -4.978305214504E-06  Hartree/bohr
            =  -6.212198954637E-05   1.682997758031E-04  -9.956610429009E-06  Ry/bohr
  Fvdw (51) =   3.106099477318E-05  -8.414988790157E-05  -4.978305214503E-06  Hartree/bohr
            =   6.212198954637E-05  -1.682997758031E-04  -9.956610429007E-06  Ry/bohr
  Fvdw (52) =   3.106099477318E-05   8.414988790157E-05   4.978305214504E-06  Hartree/bohr
            =   6.212198954637E-05   1.682997758031E-04   9.956610429008E-06  Ry/bohr
  sigma_vdw (Hy/bohr**3) =  -4.313864818040E-05  -1.630856285613E-21   2.168968055685E-21  
                            -1.630856285613E-21  -4.496102088983E-05   6.646152388257E-21  
                             2.168968055685E-21   6.646152388257E-21  -4.281198002475E-05  
  sigma_vdw (Ry/bohr**3) =  -8.627729636081E-05  -3.261712571226E-21   4.337936111369E-21  
                            -3.261712571226E-21  -8.992204177965E-05   1.329230477651E-20  
                             4.337936111369E-21   1.329230477651E-20  -8.562396004950E-05  
  sigma_vdw (GPa) =  -1.269182634174E+00  -4.798144039833E-17   6.381323259922E-17  
                     -4.798144039833E-17  -1.322798681346E+00   1.955365212181E-16  
                      6.381323259922E-17   1.955365212181E-16  -1.259571726837E+00  
 
 TIME (final):      671.6

!    total energy              =    -702.11854594 Ry
     Harris-Foulkes estimate   =    -702.11854594 Ry
     estimated scf accuracy    <          5.3E-11 Ry

     total all-electron energy =      -702.118546 Ry

     The total energy is the sum of the following terms:

     one-electron contribution =    -346.15939976 Ry
     hartree contribution      =     228.53187461 Ry
     xc contribution           =    -139.54108096 Ry
     ewald contribution        =    -244.78814226 Ry
     Dispersion XDM Correction =      -0.23514996 Ry
     one-center paw contrib.   =    -199.92664761 Ry

     convergence has been achieved in  16 iterations

     Forces acting on atoms (Ry/au):

     atom    1 type  1   force =    -0.00012318    0.00009537    0.00002735
     atom    2 type  1   force =    -0.00012318   -0.00009537   -0.00002735
     atom    3 type  1   force =     0.00012318    0.00009537   -0.00002735
     atom    4 type  1   force =     0.00012318   -0.00009537    0.00002735
     atom    5 type  1   force =     0.00009328   -0.00005925    0.00013624
     atom    6 type  1   force =     0.00009328    0.00005925   -0.00013624
     atom    7 type  1   force =    -0.00009328   -0.00005925   -0.00013624
     atom    8 type  1   force =    -0.00009328    0.00005925    0.00013624
     atom    9 type  1   force =     0.00016171   -0.00004221    0.00013412
     atom   10 type  1   force =     0.00016171    0.00004221   -0.00013412
     atom   11 type  1   force =    -0.00016171   -0.00004221   -0.00013412
     atom   12 type  1   force =    -0.00016171    0.00004221    0.00013412
     atom   13 type  3   force =     0.00006908   -0.00004538    0.00010682
     atom   14 type  3   force =     0.00006908    0.00004538   -0.00010682
     atom   15 type  3   force =    -0.00006908   -0.00004538   -0.00010682
     atom   16 type  3   force =    -0.00006908    0.00004538    0.00010682
     atom   17 type  4   force =     0.00004720   -0.00000074    0.00028575
     atom   18 type  4   force =     0.00004720    0.00000074   -0.00028575
     atom   19 type  4   force =    -0.00004720   -0.00000074   -0.00028575
     atom   20 type  4   force =    -0.00004720    0.00000074    0.00028575
     atom   21 type  4   force =    -0.00008957    0.00009445    0.00004949
     atom   22 type  4   force =    -0.00008957   -0.00009445   -0.00004949
     atom   23 type  4   force =     0.00008957    0.00009445   -0.00004949
     atom   24 type  4   force =     0.00008957   -0.00009445    0.00004949
     atom   25 type  2   force =     0.00004138   -0.00002340    0.00012009
     atom   26 type  2   force =     0.00004138    0.00002340   -0.00012009
     atom   27 type  2   force =    -0.00004138   -0.00002340   -0.00012009
     atom   28 type  2   force =    -0.00004138    0.00002340    0.00012009
     atom   29 type  2   force =     0.00011143   -0.00014529   -0.00002051
     atom   30 type  2   force =     0.00011143    0.00014529    0.00002051
     atom   31 type  2   force =    -0.00011143   -0.00014529    0.00002051
     atom   32 type  2   force =    -0.00011143    0.00014529   -0.00002051
     atom   33 type  2   force =     0.00010792   -0.00004900    0.00014034
     atom   34 type  2   force =     0.00010792    0.00004900   -0.00014034
     atom   35 type  2   force =    -0.00010792   -0.00004900   -0.00014034
     atom   36 type  2   force =    -0.00010792    0.00004900    0.00014034
     atom   37 type  2   force =     0.00013059   -0.00006961    0.00011890
     atom   38 type  2   force =     0.00013059    0.00006961   -0.00011890
     atom   39 type  2   force =    -0.00013059   -0.00006961   -0.00011890
     atom   40 type  2   force =    -0.00013059    0.00006961    0.00011890
     atom   41 type  2   force =     0.00013370    0.00012806    0.00026822
     atom   42 type  2   force =     0.00013370   -0.00012806   -0.00026822
     atom   43 type  2   force =    -0.00013370    0.00012806   -0.00026822
     atom   44 type  2   force =    -0.00013370   -0.00012806    0.00026822
     atom   45 type  2   force =     0.00001660   -0.00003303   -0.00004795
     atom   46 type  2   force =     0.00001660    0.00003303    0.00004795
     atom   47 type  2   force =    -0.00001660   -0.00003303    0.00004795
     atom   48 type  2   force =    -0.00001660    0.00003303   -0.00004795
     atom   49 type  2   force =     0.00007010   -0.00002860    0.00006532
     atom   50 type  2   force =     0.00007010    0.00002860   -0.00006532
     atom   51 type  2   force =    -0.00007010   -0.00002860   -0.00006532
     atom   52 type  2   force =    -0.00007010    0.00002860    0.00006532

     Total force =     0.001362     Total SCF correction =     0.000006

     Total XDM Dispersion Force =     0.002476

     XDM Dispersion forces acting on atoms:
     atom    1 type  1   force =     0.00011741    0.00025996    0.00039132
     atom    2 type  1   force =     0.00011741   -0.00025996   -0.00039132
     atom    3 type  1   force =    -0.00011741    0.00025996   -0.00039132
     atom    4 type  1   force =    -0.00011741   -0.00025996    0.00039132
     atom    5 type  1   force =    -0.00010066    0.00057968    0.00015126
     atom    6 type  1   force =    -0.00010066   -0.00057968   -0.00015126
     atom    7 type  1   force =     0.00010066    0.00057968   -0.00015126
     atom    8 type  1   force =     0.00010066   -0.00057968    0.00015126
     atom    9 type  1   force =    -0.00069386   -0.00014529    0.00001794
     atom   10 type  1   force =    -0.00069386    0.00014529   -0.00001794
     atom   11 type  1   force =     0.00069386   -0.00014529   -0.00001794
     atom   12 type  1   force =     0.00069386    0.00014529    0.00001794
     atom   13 type  3   force =     0.00034021    0.00009535   -0.00016213
     atom   14 type  3   force =     0.00034021   -0.00009535    0.00016213
     atom   15 type  3   force =    -0.00034021    0.00009535    0.00016213
     atom   16 type  3   force =    -0.00034021   -0.00009535   -0.00016213
     atom   17 type  4   force =     0.00021380   -0.00008032    0.00007609
     atom   18 type  4   force =     0.00021380    0.00008032   -0.00007609
     atom   19 type  4   force =    -0.00021380   -0.00008032   -0.00007609
     atom   20 type  4   force =    -0.00021380    0.00008032    0.00007609
     atom   21 type  4   force =    -0.00012008    0.00010109    0.00000829
     atom   22 type  4   force =    -0.00012008   -0.00010109   -0.00000829
     atom   23 type  4   force =     0.00012008    0.00010109   -0.00000829
     atom   24 type  4   force =     0.00012008   -0.00010109    0.00000829
     atom   25 type  2   force =     0.00013570   -0.00009382   -0.00010562
     atom   26 type  2   force =     0.00013570    0.00009382    0.00010562
     atom   27 type  2   force =    -0.00013570   -0.00009382    0.00010562
     atom   28 type  2   force =    -0.00013570    0.00009382   -0.00010562
     atom   29 type  2   force =     0.00007090    0.00006743   -0.00005282
     atom   30 type  2   force =     0.00007090   -0.00006743    0.00005282
     atom   31 type  2   force =    -0.00007090    0.00006743    0.00005282
     atom   32 type  2   force =    -0.00007090   -0.00006743   -0.00005282
     atom   33 type  2   force =     0.00005285    0.00004007   -0.00006624
     atom   34 type  2   force =     0.00005285   -0.00004007    0.00006624
     atom   35 type  2   force =    -0.00005285    0.00004007    0.00006624
     atom   36 type  2   force =    -0.00005285   -0.00004007   -0.00006624
     atom   37 type  2   force =     0.00004261    0.00021517    0.00005178
     atom   38 type  2   force =     0.00004261   -0.00021517   -0.00005178
     atom   39 type  2   force =    -0.00004261    0.00021517   -0.00005178
     atom   40 type  2   force =    -0.00004261   -0.00021517    0.00005178
     atom   41 type  2   force =    -0.00014271   -0.00000546   -0.00005132
     atom   42 type  2   force =    -0.00014271    0.00000546    0.00005132
     atom   43 type  2   force =     0.00014271   -0.00000546    0.00005132
     atom   44 type  2   force =     0.00014271    0.00000546   -0.00005132
     atom   45 type  2   force =    -0.00016000   -0.00000689    0.00003970
     atom   46 type  2   force =    -0.00016000    0.00000689   -0.00003970
     atom   47 type  2   force =     0.00016000   -0.00000689   -0.00003970
     atom   48 type  2   force =     0.00016000    0.00000689    0.00003970
     atom   49 type  2   force =    -0.00006212   -0.00016830    0.00000996
     atom   50 type  2   force =    -0.00006212    0.00016830   -0.00000996
     atom   51 type  2   force =     0.00006212   -0.00016830   -0.00000996
     atom   52 type  2   force =     0.00006212    0.00016830    0.00000996


     entering subroutine stress ...

          total   stress  (Ry/bohr**3)                   (kbar)     P=    0.09
   0.00000068   0.00000000   0.00000000          0.10      0.00      0.00
   0.00000000   0.00000063   0.00000000          0.00      0.09      0.00
   0.00000000   0.00000000   0.00000060          0.00      0.00      0.09


     Writing output data file ala_l.save
 
     init_run     :    233.93s CPU    234.69s WALL (       2 calls)
     electrons    :   5672.87s CPU   5719.69s WALL (       5 calls)
     update_pot   :    461.00s CPU    461.14s WALL (       3 calls)
     forces       :    451.34s CPU    451.93s WALL (       5 calls)
     stress       :    766.65s CPU    767.34s WALL (       5 calls)

     Called by init_run:
     wfcinit      :     70.25s CPU     70.76s WALL (       2 calls)
     potinit      :     66.51s CPU     66.63s WALL (       2 calls)

     Called by electrons:
     c_bands      :   2444.01s CPU   2479.78s WALL (      62 calls)
     sum_band     :   2077.75s CPU   2083.73s WALL (      62 calls)
     v_of_rho     :    126.99s CPU    129.94s WALL (      64 calls)
     newd         :    248.37s CPU    249.37s WALL (      64 calls)
     mix_rho      :     42.16s CPU     42.21s WALL (      62 calls)

     Called by c_bands:
     init_us_2    :     15.69s CPU     15.70s WALL (    1088 calls)
     cegterg      :   2415.56s CPU   2445.42s WALL (     496 calls)

     Called by *egterg:
     h_psi        :   2039.41s CPU   2041.81s WALL (    1620 calls)
     s_psi        :    102.93s CPU    102.96s WALL (    1620 calls)
     g_psi        :      8.46s CPU      8.49s WALL (    1108 calls)
     cdiaghg      :     22.31s CPU     22.31s WALL (    1556 calls)

     Called by h_psi:
     add_vuspsi   :    103.97s CPU    104.03s WALL (    1620 calls)

     General routines
     calbec       :    154.12s CPU    154.18s WALL (    2196 calls)
     fft          :    102.97s CPU    104.19s WALL (    1972 calls)
     ffts         :      2.76s CPU      2.81s WALL (     252 calls)
     fftw         :   2849.99s CPU   2852.98s WALL (  331858 calls)
     interpolate  :     17.46s CPU     17.77s WALL (     252 calls)
     davcio       :      0.06s CPU      9.83s WALL (    1584 calls)
 
     Parallel routines
     fft_scatter  :    459.26s CPU    461.97s WALL (  334082 calls)
 
     PAW routines
     PAW_pot      :     81.40s CPU     81.48s WALL (      64 calls)
     PAW_ddot     :     23.75s CPU     23.76s WALL (    1264 calls)
     PAW_symme    :      0.01s CPU      0.01s WALL (     123 calls)
 
     PWSCF        :     2h 6m CPU        2h 7m WALL

 
   This run was terminated on:  20:11:48   6Jun2012            

=------------------------------------------------------------------------------=
   JOB DONE.
=------------------------------------------------------------------------------=
