
     Program PWSCF v.5.2.0 starts on 12Feb2016 at 13:48: 8 

     This program is part of the open-source Quantum ESPRESSO suite
     for quantum simulation of materials; please cite
         "P. Giannozzi et al., J. Phys.:Condens. Matter 21 395502 (2009);
          URL http://www.quantum-espresso.org", 
     in publications or presentations arising from this work. More details at
     http://www.quantum-espresso.org/quote

     Parallel version (MPI), running on     8 processors
     R & G space division:  proc/nbgrp/npool/nimage =       8
     Waiting for input...
     Reading input from standard input
     Message from routine read_cards :
     DEPRECATED: no units specified in CELL_PARAMETERS card

     Current dimensions of program PWSCF are:
     Max number of different atomic species (ntypx) = 10
     Max number of k-points (npk) =  40000
     Max angular momentum in pseudopotentials (lmaxx) =  3
     Message from routine iosys:
     xdm is obsolete, use "vdw_corr='xdm'" instead
               file h.UPF: wavefunction(s)  1S renormalized
               file o.UPF: wavefunction(s)  2P renormalized

     Subspace diagonalization in iterative solution of the eigenvalue problem:
     a serial algorithm will be used


     Parallelization info
     --------------------
     sticks:   dense  smooth     PW     G-vecs:    dense   smooth      PW
     Min         349     140     39                24395     6160     953
     Max         350     141     40                24396     6175     962
     Sum        2795    1123    313               195163    49329    7639


     Title: 
     crystal                                                                    


     bravais-lattice index     =            0
     lattice parameter (alat)  =       1.0000  a.u.
     unit-cell volume          =     786.1684 (a.u.)^3
     number of atoms/cell      =           12
     number of atomic types    =            2
     number of electrons       =        32.00
     number of Kohn-Sham states=           16
     kinetic-energy cutoff     =      60.0000  Ry
     charge density cutoff     =     600.0000  Ry
     convergence threshold     =      1.0E-08
     mixing beta               =       0.7000
     number of iterations used =            8  plain     mixing
     Exchange-correlation      =  SLA  PW   B86B PBC ( 1  4 22  4 0 0)
     nstep                     =           50


     celldm(1)=   1.000000  celldm(2)=   0.000000  celldm(3)=   0.000000
     celldm(4)=   0.000000  celldm(5)=   0.000000  celldm(6)=   0.000000

     crystal axes: (cart. coord. in units of alat)
               a(1) = (   8.232462   0.000000   0.000000 )  
               a(2) = (  -4.116231   7.114449   0.000000 )  
               a(3) = (   0.000000   0.000000  13.422845 )  

     reciprocal axes: (cart. coord. in units 2 pi/alat)
               b(1) = (  0.121470  0.070280 -0.000000 )  
               b(2) = (  0.000000  0.140559  0.000000 )  
               b(3) = (  0.000000 -0.000000  0.074500 )  


     PseudoPot. # 1 for  H read from file:
     ./h.UPF
     MD5 check sum: a05c38eace8e4bf5ff015d364fdf499b
     Pseudo is Projector augmented-wave, Zval =  1.0
     Generated using "atomic" code by A. Dal Corso  v.5.0.2 svn rev. 10467M
     Shape of augmentation charge: PSQ
     Using radial grid of  929 points,  2 beta functions with: 
                l(1) =   0
                l(2) =   0
     Q(r) pseudized with 0 coefficients 


     PseudoPot. # 2 for  O read from file:
     ./o.UPF
     MD5 check sum: e5d0ebeb85377a04d0834d2ed76ab915
     Pseudo is Projector augmented-wave + core cor, Zval =  6.0
     Generated using "atomic" code by A. Dal Corso  v.5.0.2 svn rev. 10467M
     Shape of augmentation charge: BESSEL
     Using radial grid of 1095 points,  4 beta functions with: 
                l(1) =   0
                l(2) =   0
                l(3) =   1
                l(4) =   1
     Q(r) pseudized with 0 coefficients 


     atomic species   valence    mass     pseudopotential
        h              1.00     1.00794      H( 1.00)
        o              6.00    15.99940      O( 1.00)

      2 Sym. Ops. (no inversion) found ( 1 have fractional translation)



   Cartesian axes

     site n.     atom                  positions (alat units)
         1           o   tau(   1) = (  -0.0336804   4.7235740   0.8708235  )
         2           h   tau(   2) = (   0.0147958   6.5049871   0.2196696  )
         3           h   tau(   3) = (   1.5365872   3.8747435   0.2196615  )
         4           o   tau(   4) = (   4.0896502   2.3561574  12.6193518  )
         5           h   tau(   5) = (   4.1254181   2.3767561  10.7214552  )
         6           h   tau(   6) = (   5.6562464   3.2587204  13.1922052  )
         7           o   tau(   7) = (   0.0266293   4.7582880   5.9079359  )
         8           h   tau(   8) = (  -0.0091392   4.7376905   4.0100380  )
         9           h   tau(   9) = (  -1.5399656   3.8557235   6.4807845  )
        10           o   tau(  10) = (   4.1499365   2.3908688   7.5822481  )
        11           h   tau(  11) = (   2.5796696   3.2396979   6.9310913  )
        12           h   tau(  12) = (   4.1014593   0.6094534   6.9310969  )

     number of k points=    32
                       cart. coord. in units 2pi/alat
        k(    1) = (   0.0151838   0.0263548   0.0093125), wk =   0.0625000
        k(    2) = (   0.0151838   0.0263548   0.0279374), wk =   0.0625000
        k(    3) = (   0.0151838   0.0614946   0.0093125), wk =   0.0625000
        k(    4) = (   0.0151838   0.0614946   0.0279374), wk =   0.0625000
        k(    5) = (   0.0151838  -0.0439247   0.0093125), wk =   0.0625000
        k(    6) = (   0.0151838  -0.0439247   0.0279374), wk =   0.0625000
        k(    7) = (   0.0151838  -0.0087849   0.0093125), wk =   0.0625000
        k(    8) = (   0.0151838  -0.0087849   0.0279374), wk =   0.0625000
        k(    9) = (   0.0455514   0.0439247   0.0093125), wk =   0.0625000
        k(   10) = (   0.0455514   0.0439247   0.0279374), wk =   0.0625000
        k(   11) = (   0.0455514   0.0790644   0.0093125), wk =   0.0625000
        k(   12) = (   0.0455514   0.0790644   0.0279374), wk =   0.0625000
        k(   13) = (   0.0455514  -0.0263548   0.0093125), wk =   0.0625000
        k(   14) = (   0.0455514  -0.0263548   0.0279374), wk =   0.0625000
        k(   15) = (   0.0455514   0.0087849   0.0093125), wk =   0.0625000
        k(   16) = (   0.0455514   0.0087849   0.0279374), wk =   0.0625000
        k(   17) = (  -0.0151838   0.0263548  -0.0093125), wk =   0.0625000
        k(   18) = (  -0.0151838   0.0263548  -0.0279374), wk =   0.0625000
        k(   19) = (  -0.0151838   0.0614946  -0.0093125), wk =   0.0625000
        k(   20) = (  -0.0151838   0.0614946  -0.0279374), wk =   0.0625000
        k(   21) = (  -0.0151838  -0.0439247  -0.0093125), wk =   0.0625000
        k(   22) = (  -0.0151838  -0.0439247  -0.0279374), wk =   0.0625000
        k(   23) = (  -0.0151838  -0.0087849  -0.0093125), wk =   0.0625000
        k(   24) = (  -0.0151838  -0.0087849  -0.0279374), wk =   0.0625000
        k(   25) = (  -0.0455514   0.0439247  -0.0093125), wk =   0.0625000
        k(   26) = (  -0.0455514   0.0439247  -0.0279374), wk =   0.0625000
        k(   27) = (  -0.0455514   0.0790644  -0.0093125), wk =   0.0625000
        k(   28) = (  -0.0455514   0.0790644  -0.0279374), wk =   0.0625000
        k(   29) = (  -0.0455514  -0.0263548  -0.0093125), wk =   0.0625000
        k(   30) = (  -0.0455514  -0.0263548  -0.0279374), wk =   0.0625000
        k(   31) = (  -0.0455514   0.0087849  -0.0093125), wk =   0.0625000
        k(   32) = (  -0.0455514   0.0087849  -0.0279374), wk =   0.0625000

     Dense  grid:   195163 G-vectors     FFT dimensions: (  72,  72, 108)

     Smooth grid:    49329 G-vectors     FFT dimensions: (  45,  45,  72)

     Largest allocated arrays     est. size (Mb)     dimensions
        Kohn-Sham Wavefunctions         0.19 Mb     (     788,   16)
        NL pseudopotentials             0.58 Mb     (     788,   48)
        Each V/rho on FFT grid          1.11 Mb     (   72576)
        Each G-vector array             0.19 Mb     (   24395)
        G-vector shells                 0.19 Mb     (   24395)
     Largest temporary arrays     est. size (Mb)     dimensions
        Auxiliary wavefunctions         0.77 Mb     (     788,   64)
        Each subspace H/S matrix        0.06 Mb     (      64,   64)
        Each <psi_i|beta_j> matrix      0.01 Mb     (      48,   16)
        Arrays for rho mixing           8.86 Mb     (   72576,    8)

     Initial potential from superposition of free atoms

     starting charge   31.99992, renormalised to   32.00000
     Starting wfc are   24 randomized atomic wfcs
     Checking if some PAW data can be deallocated... 

     total cpu time spent up to now is        6.4 secs

     per-process dynamical memory:    27.3 Mb

     Self-consistent Calculation

     iteration #  1     ecut=    60.00 Ry     beta=0.70
     Davidson diagonalization with overlap
     ethr =  1.00E-02,  avg # of iterations =  2.0

     total cpu time spent up to now is       13.4 secs

     total energy              =    -176.31777784 Ry
     Harris-Foulkes estimate   =    -177.24358149 Ry
     estimated scf accuracy    <       1.25994386 Ry

     iteration #  2     ecut=    60.00 Ry     beta=0.70
     Davidson diagonalization with overlap
     ethr =  3.94E-03,  avg # of iterations =  3.0

     total cpu time spent up to now is       21.5 secs

     total energy              =    -176.66929512 Ry
     Harris-Foulkes estimate   =    -177.15179004 Ry
     estimated scf accuracy    <       0.91969829 Ry

     iteration #  3     ecut=    60.00 Ry     beta=0.70
     Davidson diagonalization with overlap
     ethr =  2.87E-03,  avg # of iterations =  2.0

     total cpu time spent up to now is       28.8 secs

     total energy              =    -176.85628851 Ry
     Harris-Foulkes estimate   =    -176.85839265 Ry
     estimated scf accuracy    <       0.00783850 Ry

     iteration #  4     ecut=    60.00 Ry     beta=0.70
     Davidson diagonalization with overlap
     ethr =  2.45E-05,  avg # of iterations =  3.0

     total cpu time spent up to now is       36.4 secs

     total energy              =    -176.86009559 Ry
     Harris-Foulkes estimate   =    -176.86057318 Ry
     estimated scf accuracy    <       0.00180503 Ry

     iteration #  5     ecut=    60.00 Ry     beta=0.70
     Davidson diagonalization with overlap
     ethr =  5.64E-06,  avg # of iterations =  1.0

     total cpu time spent up to now is       42.6 secs

     total energy              =    -176.85993271 Ry
     Harris-Foulkes estimate   =    -176.86013787 Ry
     estimated scf accuracy    <       0.00075950 Ry

     iteration #  6     ecut=    60.00 Ry     beta=0.70
     Davidson diagonalization with overlap
     ethr =  2.37E-06,  avg # of iterations =  1.0

     total cpu time spent up to now is       48.6 secs

     total energy              =    -176.85985666 Ry
     Harris-Foulkes estimate   =    -176.85996031 Ry
     estimated scf accuracy    <       0.00024233 Ry

     iteration #  7     ecut=    60.00 Ry     beta=0.70
     Davidson diagonalization with overlap
     ethr =  7.57E-07,  avg # of iterations =  2.0

     total cpu time spent up to now is       55.3 secs

     total energy              =    -176.85988108 Ry
     Harris-Foulkes estimate   =    -176.85988147 Ry
     estimated scf accuracy    <       0.00000200 Ry

     iteration #  8     ecut=    60.00 Ry     beta=0.70
     Davidson diagonalization with overlap
     ethr =  6.26E-09,  avg # of iterations =  2.2

     total cpu time spent up to now is       63.5 secs

     total energy              =    -176.85988095 Ry
     Harris-Foulkes estimate   =    -176.85988166 Ry
     estimated scf accuracy    <       0.00000215 Ry

     iteration #  9     ecut=    60.00 Ry     beta=0.70
     Davidson diagonalization with overlap
     ethr =  6.26E-09,  avg # of iterations =  1.8

     total cpu time spent up to now is       69.8 secs

     total energy              =    -176.85988078 Ry
     Harris-Foulkes estimate   =    -176.85988108 Ry
     estimated scf accuracy    <       0.00000052 Ry

     iteration # 10     ecut=    60.00 Ry     beta=0.70
     Davidson diagonalization with overlap
     ethr =  1.62E-09,  avg # of iterations =  2.0

     total cpu time spent up to now is       77.0 secs

     total energy              =    -176.85988098 Ry
     Harris-Foulkes estimate   =    -176.85988101 Ry
     estimated scf accuracy    <       0.00000014 Ry

     iteration # 11     ecut=    60.00 Ry     beta=0.70
     Davidson diagonalization with overlap
     ethr =  4.45E-10,  avg # of iterations =  1.0

     total cpu time spent up to now is       83.1 secs

     total energy              =    -176.85988096 Ry
     Harris-Foulkes estimate   =    -176.85988099 Ry
     estimated scf accuracy    <       0.00000006 Ry

     iteration # 12     ecut=    60.00 Ry     beta=0.70
     Davidson diagonalization with overlap
     ethr =  1.97E-10,  avg # of iterations =  2.0

     total cpu time spent up to now is       89.9 secs

     End of self-consistent calculation

          k = 0.0152 0.0264 0.0093 (  6158 PWs)   bands (ev):

   -21.4966 -21.1098 -20.4144 -19.9621  -8.8952  -8.7964  -8.7300  -8.6917
    -6.7986  -6.0282  -5.0095  -4.2371  -3.3416  -3.3187  -3.1865  -3.1424

          k = 0.0152 0.0264 0.0279 (  6160 PWs)   bands (ev):

   -21.4100 -21.2590 -20.2465 -20.0684  -8.8414  -8.7764  -8.7642  -8.7239
    -6.6152  -6.3108  -4.7435  -4.4394  -3.3047  -3.2807  -3.2335  -3.1965

          k = 0.0152 0.0615 0.0093 (  6172 PWs)   bands (ev):

   -21.2006 -20.8571 -20.6832 -20.3136  -8.9404  -8.8883  -8.8397  -8.7936
    -6.3461  -5.7056  -5.3070  -4.6627  -3.2401  -3.1945  -3.1138  -3.0570

          k = 0.0152 0.0615 0.0279 (  6182 PWs)   bands (ev):

   -21.1355 -21.0151 -20.5180 -20.3868  -8.9104  -8.8821  -8.8345  -8.8040
    -6.2532  -6.0301  -4.9952  -4.7706  -3.2239  -3.1941  -3.1335  -3.0956

          k = 0.0152-0.0439 0.0093 (  6179 PWs)   bands (ev):

   -21.3559 -20.9697 -20.5653 -20.1332  -8.9162  -8.8645  -8.8159  -8.7486
    -6.5593  -5.7728  -5.2078  -4.4430  -3.2865  -3.2705  -3.1641  -3.0884

          k = 0.0152-0.0439 0.0279 (  6153 PWs)   bands (ev):

   -21.2758 -21.1312 -20.3908 -20.2272  -8.8742  -8.8629  -8.8127  -8.7735
    -6.4109  -6.1213  -4.8801  -4.5997  -3.2696  -3.2566  -3.1790  -3.1408

          k = 0.0152-0.0088 0.0093 (  6169 PWs)   bands (ev):

   -21.5759 -21.1906 -20.3239 -19.8617  -8.8614  -8.7568  -8.7034  -8.6639
    -6.9306  -6.1756  -4.8302  -4.0784  -3.3857  -3.3451  -3.2744  -3.1832

          k = 0.0152-0.0088 0.0279 (  6154 PWs)   bands (ev):

   -21.4869 -21.3345 -20.1579 -19.9736  -8.8110  -8.7459  -8.7339  -8.6959
    -6.7321  -6.4272  -4.5946  -4.2924  -3.3470  -3.3351  -3.2977  -3.2392

          k = 0.0456 0.0439 0.0093 (  6171 PWs)   bands (ev):

   -21.1997 -20.8577 -20.6841 -20.3150  -8.9447  -8.8757  -8.8218  -8.7580
    -6.3632  -5.7975  -5.3121  -4.6800  -3.2210  -3.2117  -3.0639  -3.0325

          k = 0.0456 0.0439 0.0279 (  6176 PWs)   bands (ev):

   -21.1349 -21.0151 -20.5193 -20.3883  -8.8994  -8.8505  -8.8331  -8.7885
    -6.2765  -6.0719  -5.0374  -4.8048  -3.1911  -3.1594  -3.1232  -3.0848

          k = 0.0456 0.0791 0.0093 (  6186 PWs)   bands (ev):

   -21.0820 -20.9106 -20.6281 -20.4459  -8.9610  -8.8850  -8.8518  -8.8263
    -6.1340  -5.8377  -5.1621  -4.8790  -3.2191  -3.1541  -3.1156  -3.0374

          k = 0.0456 0.0791 0.0279 (  6185 PWs)   bands (ev):

   -21.0420 -20.9745 -20.5615 -20.4895  -8.9372  -8.9008  -8.8317  -8.8188
    -6.1136  -6.0034  -5.0136  -4.9090  -3.2014  -3.1768  -3.1180  -3.0751

          k = 0.0456-0.0264 0.0093 (  6169 PWs)   bands (ev):

   -21.3034 -20.9215 -20.6165 -20.1953  -8.9282  -8.8700  -8.8167  -8.7681
    -6.4941  -5.7338  -5.2707  -4.5138  -3.2689  -3.2379  -3.1404  -3.0757

          k = 0.0456-0.0264 0.0279 (  6165 PWs)   bands (ev):

   -21.2271 -21.0876 -20.4393 -20.2836  -8.8860  -8.8679  -8.8164  -8.7871
    -6.3631  -6.0910  -4.9289  -4.6584  -3.2517  -3.2278  -3.1589  -3.1227

          k = 0.0456 0.0088 0.0093 (  6172 PWs)   bands (ev):

   -21.3555 -20.9698 -20.5666 -20.1342  -8.9266  -8.8471  -8.7791  -8.7305
    -6.5789  -5.8306  -5.2446  -4.4762  -3.2736  -3.2570  -3.1007  -3.0855

          k = 0.0456 0.0088 0.0279 (  6154 PWs)   bands (ev):

   -21.2756 -21.1312 -20.3920 -20.2283  -8.8751  -8.8203  -8.8053  -8.7627
    -6.4339  -6.1558  -4.9318  -4.6457  -3.2385  -3.2093  -3.1622  -3.1337

          k =-0.0152 0.0264-0.0093 (  6158 PWs)   bands (ev):

   -21.4973 -21.1104 -20.4132 -19.9608  -8.8842  -8.7882  -8.7684  -8.7054
    -6.7863  -6.0027  -4.9840  -4.2130  -3.3479  -3.3281  -3.2428  -3.1286

          k =-0.0152 0.0264-0.0279 (  6160 PWs)   bands (ev):

   -21.4107 -21.2596 -20.2454 -20.0671  -8.8246  -8.7857  -8.7789  -8.7484
    -6.6015  -6.2921  -4.7143  -4.4114  -3.3207  -3.3128  -3.2533  -3.1897

          k =-0.0152 0.0615-0.0093 (  6172 PWs)   bands (ev):

   -21.2014 -20.8571 -20.6829 -20.3126  -8.9412  -8.9089  -8.8262  -8.7955
    -6.3447  -5.7062  -5.2864  -4.6560  -3.2426  -3.2068  -3.0969  -3.0786

          k =-0.0152 0.0615-0.0279 (  6182 PWs)   bands (ev):

   -21.1362 -21.0155 -20.5173 -20.3860  -8.9173  -8.9024  -8.8213  -8.7993
    -6.2515  -6.0277  -4.9804  -4.7600  -3.2249  -3.2136  -3.1187  -3.1111

          k =-0.0152-0.0439-0.0093 (  6179 PWs)   bands (ev):

   -21.3548 -20.9689 -20.5668 -20.1347  -8.9106  -8.8644  -8.7852  -8.7581
    -6.5671  -5.7867  -5.2410  -4.4625  -3.2848  -3.2527  -3.1389  -3.0826

          k =-0.0152-0.0439-0.0279 (  6153 PWs)   bands (ev):

   -21.2748 -21.1304 -20.3922 -20.2287  -8.8570  -8.8405  -8.8116  -8.7883
    -6.4195  -6.1329  -4.9113  -4.6258  -3.2597  -3.2210  -3.1790  -3.1318

          k =-0.0152-0.0088-0.0093 (  6169 PWs)   bands (ev):

   -21.5756 -21.1903 -20.3244 -19.8622  -8.8709  -8.7515  -8.7042  -8.6433
    -6.9371  -6.1881  -4.8408  -4.0906  -3.3724  -3.3525  -3.2355  -3.2002

          k =-0.0152-0.0088-0.0279 (  6154 PWs)   bands (ev):

   -21.4867 -21.3343 -20.1584 -19.9741  -8.8221  -8.7535  -8.7202  -8.6756
    -6.7393  -6.4368  -4.6071  -4.3052  -3.3335  -3.3217  -3.2850  -3.2504

          k =-0.0456 0.0439-0.0093 (  6171 PWs)   bands (ev):

   -21.2046 -20.8579 -20.6823 -20.3091  -8.9389  -8.9086  -8.8259  -8.7955
    -6.3432  -5.7074  -5.2870  -4.6576  -3.2425  -3.2074  -3.0962  -3.0792

          k =-0.0456 0.0439-0.0279 (  6176 PWs)   bands (ev):

   -21.1389 -21.0175 -20.5154 -20.3830  -8.9163  -8.9020  -8.8204  -8.7985
    -6.2507  -6.0279  -4.9817  -4.7615  -3.2247  -3.2139  -3.1185  -3.1114

          k =-0.0456 0.0791-0.0093 (  6186 PWs)   bands (ev):

   -21.0768 -20.9155 -20.6242 -20.4512  -8.9518  -8.8844  -8.8397  -8.8217
    -6.1311  -5.8762  -5.1909  -4.8773  -3.2068  -3.1697  -3.0935  -3.0174

          k =-0.0456 0.0791-0.0279 (  6185 PWs)   bands (ev):

   -21.0385 -20.9747 -20.5621 -20.4934  -8.9218  -8.8739  -8.8461  -8.8212
    -6.1184  -6.0226  -5.0435  -4.9226  -3.1874  -3.1431  -3.1316  -3.0645

          k =-0.0456-0.0264-0.0093 (  6169 PWs)   bands (ev):

   -21.3002 -20.9192 -20.6203 -20.1996  -8.9478  -8.8400  -8.8026  -8.7184
    -6.5217  -5.8341  -5.2803  -4.5424  -3.2478  -3.2428  -3.0705  -3.0625

          k =-0.0456-0.0264-0.0279 (  6165 PWs)   bands (ev):

   -21.2243 -21.0854 -20.4429 -20.2876  -8.8938  -8.8327  -8.8049  -8.7548
    -6.3956  -6.1416  -4.9780  -4.7033  -3.2072  -3.1917  -3.1290  -3.1204

          k =-0.0456 0.0088-0.0093 (  6172 PWs)   bands (ev):

   -21.3566 -20.9707 -20.5651 -20.1326  -8.9089  -8.8629  -8.7846  -8.7591
    -6.5663  -5.7868  -5.2425  -4.4637  -3.2842  -3.2527  -3.1389  -3.0829

          k =-0.0456 0.0088-0.0279 (  6154 PWs)   bands (ev):

   -21.2766 -21.1320 -20.3906 -20.2268  -8.8559  -8.8398  -8.8106  -8.7881
    -6.4191  -6.1329  -4.9125  -4.6271  -3.2594  -3.2207  -3.1793  -3.1320

     highest occupied level (ev):    -3.0174

* XDM dispersion
  a1 =     0.651200
  a2 (ang) =     1.463300
  a2 (bohr) =     2.765236

+ Volumes and moments
# All results in atomic units (Hartree,bohr)
# i        V             Vfree           M1             M2             M3
  1   2.024564E+01   2.369510E+01   4.322259E+00   3.214297E+01   3.107694E+02
  2   7.381997E+00   1.032844E+01   1.436499E+00   1.340649E+01   2.479274E+02
  3   7.380435E+00   1.032844E+01   1.437400E+00   1.340583E+01   2.478650E+02
  4   2.025157E+01   2.369510E+01   4.323655E+00   3.216038E+01   3.109781E+02
  5   7.375689E+00   1.032844E+01   1.436423E+00   1.339350E+01   2.476400E+02
  6   7.383567E+00   1.032844E+01   1.435937E+00   1.340913E+01   2.479845E+02
  7   2.025152E+01   2.369510E+01   4.323646E+00   3.216030E+01   3.109780E+02
  8   7.375706E+00   1.032844E+01   1.436430E+00   1.339355E+01   2.476406E+02
  9   7.383584E+00   1.032844E+01   1.435951E+00   1.340917E+01   2.479842E+02
 10   2.024563E+01   2.369510E+01   4.322260E+00   3.214295E+01   3.107689E+02
 11   7.380414E+00   1.032844E+01   1.437393E+00   1.340580E+01   2.478649E+02
 12   7.381989E+00   1.032844E+01   1.436497E+00   1.340647E+01   2.479272E+02

+ Dispersion coefficients
# All results in atomic units (Hartree,bohr).
# i   j      C6             C8             C10            Rc            Rvdw
  1   1   9.993664E+00   2.229570E+02   5.195431E+03   4.775198E+00   5.874845E+00
  2   1   4.494837E+00   1.130633E+02   3.508128E+03   5.290404E+00   6.210347E+00
  2   2   2.309973E+00   6.467521E+01   2.439763E+03   5.711353E+00   6.484470E+00
  3   1   4.496437E+00   1.130610E+02   3.507127E+03   5.289561E+00   6.209798E+00
  3   2   2.310452E+00   6.466678E+01   2.438998E+03   5.710620E+00   6.483992E+00
  3   3   2.310932E+00   6.465836E+01   2.438233E+03   5.709887E+00   6.483514E+00
  4   1   9.996743E+00   2.230501E+02   5.198040E+03   4.775429E+00   5.874996E+00
  4   2   4.496198E+00   1.131085E+02   3.509702E+03   5.290594E+00   6.210471E+00
  4   3   4.497798E+00   1.131062E+02   3.508701E+03   5.289751E+00   6.209922E+00
  4   4   9.999822E+00   2.231432E+02   5.200649E+03   4.775660E+00   5.875146E+00
  5   1   4.493434E+00   1.129704E+02   3.504117E+03   5.289312E+00   6.209636E+00
  5   2   2.308924E+00   6.461625E+01   2.437000E+03   5.710401E+00   6.483849E+00
  5   3   2.309404E+00   6.460783E+01   2.436236E+03   5.709667E+00   6.483371E+00
  5   4   4.494794E+00   1.130156E+02   3.505689E+03   5.289503E+00   6.209760E+00
  5   5   2.307877E+00   6.455734E+01   2.434240E+03   5.709448E+00   6.483229E+00
  6   1   4.493956E+00   1.130782E+02   3.509176E+03   5.291050E+00   6.210768E+00
  6   2   2.309766E+00   6.468847E+01   2.440538E+03   5.711922E+00   6.484840E+00
  6   3   2.310246E+00   6.468004E+01   2.439772E+03   5.711188E+00   6.484362E+00
  6   4   4.495317E+00   1.131234E+02   3.510750E+03   5.291241E+00   6.210892E+00
  6   5   2.308718E+00   6.462949E+01   2.437774E+03   5.710969E+00   6.484219E+00
  6   6   2.309561E+00   6.470173E+01   2.441313E+03   5.712490E+00   6.485210E+00
  7   1   9.996719E+00   2.230495E+02   5.198030E+03   4.775430E+00   5.874996E+00
  7   2   4.496187E+00   1.131083E+02   3.509694E+03   5.290594E+00   6.210471E+00
  7   3   4.497787E+00   1.131060E+02   3.508693E+03   5.289752E+00   6.209923E+00
  7   4   9.999799E+00   2.231426E+02   5.200639E+03   4.775661E+00   5.875147E+00
  7   5   4.494784E+00   1.130153E+02   3.505681E+03   5.289503E+00   6.209761E+00
  7   6   4.495306E+00   1.131231E+02   3.510742E+03   5.291241E+00   6.210892E+00
  7   7   9.999776E+00   2.231421E+02   5.200629E+03   4.775661E+00   5.875147E+00
  8   1   4.493452E+00   1.129708E+02   3.504125E+03   5.289310E+00   6.209635E+00
  8   2   2.308933E+00   6.461644E+01   2.437005E+03   5.710399E+00   6.483848E+00
  8   3   2.309412E+00   6.460802E+01   2.436241E+03   5.709665E+00   6.483370E+00
  8   4   4.494812E+00   1.130160E+02   3.505697E+03   5.289501E+00   6.209759E+00
  8   5   2.307885E+00   6.455753E+01   2.434246E+03   5.709446E+00   6.483227E+00
  8   6   2.308726E+00   6.462968E+01   2.437780E+03   5.710967E+00   6.484218E+00
  8   7   4.494802E+00   1.130157E+02   3.505690E+03   5.289501E+00   6.209759E+00
  8   8   2.307893E+00   6.455772E+01   2.434251E+03   5.709444E+00   6.483226E+00
  9   1   4.493989E+00   1.130786E+02   3.509175E+03   5.291040E+00   6.210762E+00
  9   2   2.309780E+00   6.468862E+01   2.440537E+03   5.711913E+00   6.484834E+00
  9   3   2.310260E+00   6.468019E+01   2.439772E+03   5.711180E+00   6.484356E+00
  9   4   4.495350E+00   1.131238E+02   3.510749E+03   5.291231E+00   6.210886E+00
  9   5   2.308732E+00   6.462964E+01   2.437774E+03   5.710960E+00   6.484213E+00
  9   6   2.309574E+00   6.470188E+01   2.441313E+03   5.712481E+00   6.485204E+00
  9   7   4.495339E+00   1.131235E+02   3.510741E+03   5.291231E+00   6.210886E+00
  9   8   2.308740E+00   6.462983E+01   2.437779E+03   5.710958E+00   6.484212E+00
  9   9   2.309588E+00   6.470203E+01   2.441313E+03   5.712472E+00   6.485198E+00
 10   1   9.993664E+00   2.229570E+02   5.195427E+03   4.775197E+00   5.874844E+00
 10   2   4.494837E+00   1.130633E+02   3.508126E+03   5.290403E+00   6.210347E+00
 10   3   4.496436E+00   1.130610E+02   3.507125E+03   5.289560E+00   6.209798E+00
 10   4   9.996743E+00   2.230500E+02   5.198036E+03   4.775428E+00   5.874995E+00
 10   5   4.493434E+00   1.129704E+02   3.504115E+03   5.289311E+00   6.209636E+00
 10   6   4.493956E+00   1.130782E+02   3.509174E+03   5.291050E+00   6.210768E+00
 10   7   9.996720E+00   2.230495E+02   5.198026E+03   4.775429E+00   5.874995E+00
 10   8   4.493452E+00   1.129708E+02   3.504123E+03   5.289309E+00   6.209634E+00
 10   9   4.493989E+00   1.130785E+02   3.509173E+03   5.291040E+00   6.210761E+00
 10  10   9.993664E+00   2.229569E+02   5.195424E+03   4.775196E+00   5.874844E+00
 11   1   4.496418E+00   1.130607E+02   3.507122E+03   5.289564E+00   6.209801E+00
 11   2   2.310444E+00   6.466661E+01   2.438994E+03   5.710623E+00   6.483994E+00
 11   3   2.310924E+00   6.465818E+01   2.438229E+03   5.709890E+00   6.483516E+00
 11   4   4.497780E+00   1.131059E+02   3.508696E+03   5.289755E+00   6.209925E+00
 11   5   2.309396E+00   6.460765E+01   2.436232E+03   5.709670E+00   6.483373E+00
 11   6   2.310237E+00   6.467986E+01   2.439768E+03   5.711191E+00   6.484364E+00
 11   7   4.497769E+00   1.131056E+02   3.508688E+03   5.289755E+00   6.209925E+00
 11   8   2.309404E+00   6.460784E+01   2.436237E+03   5.709668E+00   6.483372E+00
 11   9   2.310251E+00   6.468001E+01   2.439768E+03   5.711183E+00   6.484358E+00
 11  10   4.496418E+00   1.130607E+02   3.507120E+03   5.289564E+00   6.209800E+00
 11  11   2.310915E+00   6.465801E+01   2.438225E+03   5.709893E+00   6.483518E+00
 12   1   4.494832E+00   1.130632E+02   3.508124E+03   5.290404E+00   6.210347E+00
 12   2   2.309970E+00   6.467513E+01   2.439760E+03   5.711353E+00   6.484470E+00
 12   3   2.310450E+00   6.466671E+01   2.438995E+03   5.710620E+00   6.483992E+00
 12   4   4.496193E+00   1.131084E+02   3.509698E+03   5.290594E+00   6.210471E+00
 12   5   2.308922E+00   6.461617E+01   2.436997E+03   5.710401E+00   6.483849E+00
 12   6   2.309764E+00   6.468839E+01   2.440535E+03   5.711922E+00   6.484840E+00
 12   7   4.496182E+00   1.131081E+02   3.509690E+03   5.290594E+00   6.210471E+00
 12   8   2.308930E+00   6.461636E+01   2.437003E+03   5.710399E+00   6.483848E+00
 12   9   2.309778E+00   6.468854E+01   2.440535E+03   5.711913E+00   6.484834E+00
 12  10   4.494832E+00   1.130632E+02   3.508122E+03   5.290403E+00   6.210347E+00
 12  11   2.310441E+00   6.466653E+01   2.438991E+03   5.710623E+00   6.483994E+00
 12  12   2.309967E+00   6.467506E+01   2.439757E+03   5.711353E+00   6.484470E+00

+ van der Waals energies, forces and stresses (Ry,bohr)
  Evdw(total,Ry)   =  -3.539266501384E-02
  Evdw(C6,Ry)      =  -1.901842019110E-02
  Evdw(C8,Ry)      =  -9.621111233407E-03
  Evdw(C10,Ry)     =  -6.753133589328E-03
  Fvdw (001,Ry/bohr) =   1.664700298297E-05   8.885096354097E-06  -3.812286975832E-05
  Fvdw (002,Ry/bohr) =   1.850004037651E-06  -1.637580349505E-05  -1.610365843758E-06
  Fvdw (003,Ry/bohr) =  -1.378908731392E-05   9.545285558882E-06  -1.678505149278E-06
  Fvdw (004,Ry/bohr) =   1.145490948223E-05   6.853783074195E-06   2.886889463220E-05
  Fvdw (005,Ry/bohr) =   5.399108845558E-06   2.729135619080E-06   1.822397234198E-05
  Fvdw (006,Ry/bohr) =  -1.438605055359E-05  -7.837893739209E-06  -5.687774964698E-06
  Fvdw (007,Ry/bohr) =  -1.146093670128E-05  -6.854081675981E-06   2.887164469010E-05
  Fvdw (008,Ry/bohr) =  -5.398395074786E-06  -2.728795668329E-06   1.822527694552E-05
  Fvdw (009,Ry/bohr) =   1.438606238429E-05   7.837470553762E-06  -5.685801307303E-06
  Fvdw (010,Ry/bohr) =  -1.664128328497E-05  -8.884608374675E-06  -3.812096923226E-05
  Fvdw (011,Ry/bohr) =   1.378934124467E-05  -9.545606337619E-06  -1.675472871578E-06
  Fvdw (012,Ry/bohr) =  -1.850676048821E-06   1.637601813085E-05  -1.608029482598E-06
  sigma_vdw (Ry/bohr**3) =  -4.964087282420E-05   5.540996425291E-10   1.882325750820E-11  
                             5.540996425291E-10  -4.965800448008E-05   3.191024256358E-12  
                             1.882325750820E-11   3.191024256358E-12  -5.122734470331E-05  
  sigma_vdw (GPa) =  -7.302423278334E-01   8.151085784592E-06   2.768996312549E-07  
                      8.151085784592E-06  -7.304943431498E-01   4.694157956062E-08  
                      2.768996312549E-07   4.694157956062E-08  -7.535801309810E-01  


!    total energy              =    -176.89527363 Ry
     Harris-Foulkes estimate   =    -176.89527363 Ry
     estimated scf accuracy    <          8.0E-10 Ry

     total all-electron energy =      -612.273049 Ry

     The total energy is the sum of the following terms:

     one-electron contribution =    -111.69583811 Ry
     hartree contribution      =      67.18684756 Ry
     xc contribution           =     -35.78734456 Ry
     ewald contribution        =     -58.20199605 Ry
     Dispersion XDM Correction =      -0.03539267 Ry
     one-center paw contrib.   =     -38.36154981 Ry

     convergence has been achieved in  12 iterations

     Forces acting on atoms (Ry/au):

     atom    1 type  2   force =     0.00182307   -0.00129829   -0.00016388
     atom    2 type  1   force =    -0.00025456    0.00126092   -0.00032643
     atom    3 type  1   force =    -0.00079450    0.00008478    0.00040486
     atom    4 type  2   force =    -0.00122809   -0.00036037   -0.00087910
     atom    5 type  1   force =    -0.00038902   -0.00020327   -0.00034092
     atom    6 type  1   force =     0.00134263    0.00080754    0.00130547
     atom    7 type  2   force =     0.00122809    0.00036037   -0.00087910
     atom    8 type  1   force =     0.00038902    0.00020327   -0.00034092
     atom    9 type  1   force =    -0.00134263   -0.00080754    0.00130547
     atom   10 type  2   force =    -0.00182307    0.00129829   -0.00016388
     atom   11 type  1   force =     0.00079450   -0.00008478    0.00040486
     atom   12 type  1   force =     0.00025456   -0.00126092   -0.00032643

     Total force =     0.005381     Total SCF correction =     0.000012


     entering subroutine stress ...

          total   stress  (Ry/bohr**3)                   (kbar)     P=    1.22
   0.00000625   0.00000829   0.00000000          0.92      1.22      0.00
   0.00000829   0.00001213   0.00000000          1.22      1.78      0.00
   0.00000000   0.00000000   0.00000650          0.00      0.00      0.96


     BFGS Geometry Optimization

     number of scf cycles    =   1
     number of bfgs steps    =   0

     enthalpy new            =    -176.8952736328 Ry

     new trust radius        =       0.0022441033 bohr
     new conv_thr            =       0.0000000100 Ry

     new unit-cell volume =    786.65760 a.u.^3 (   116.57063 Ang^3 )

CELL_PARAMETERS (alat=  1.00000000)
   8.233748737   0.001706185   0.000000000
  -4.115399893   7.115754158   0.000000000
   0.000000000   0.000000000  13.425026516

ATOMIC_POSITIONS (crystal)
o        0.328009502   0.663758448   0.064864013
h        0.459022242   0.914511834   0.016341035
h        0.458874301   0.544642060   0.016394911
o        0.662186325   0.331128522   0.940074397
h        0.668091692   0.334045928   0.798721471
h        0.916307343   0.458156049   0.982914641
o        0.337819326   0.668870955   0.440074879
h        0.331913956   0.665953698   0.298721857
h        0.083698360   0.541843209   0.482914766
o        0.671993116   0.336240664   0.564864179
h        0.541128300   0.455356848   0.516395463
h        0.540980077   0.085486935   0.516341405



     Writing output data file crystal.save
     NEW-OLD atomic charge density approx. for the potential
     extrapolated charge   32.01990, renormalised to   32.00000

     total cpu time spent up to now is      123.1 secs

     per-process dynamical memory:    71.4 Mb

     Self-consistent Calculation

     iteration #  1     ecut=    60.00 Ry     beta=0.70
     Davidson diagonalization with overlap
     ethr =  1.00E-06,  avg # of iterations =  2.2

     total cpu time spent up to now is      129.9 secs

     total energy              =    -176.85984258 Ry
     Harris-Foulkes estimate   =    -176.80426236 Ry
     estimated scf accuracy    <       0.00005824 Ry

     iteration #  2     ecut=    60.00 Ry     beta=0.70
     Davidson diagonalization with overlap
     ethr =  1.82E-07,  avg # of iterations =  3.0

     total cpu time spent up to now is      138.3 secs

     total energy              =    -176.85990550 Ry
     Harris-Foulkes estimate   =    -176.85997710 Ry
     estimated scf accuracy    <       0.00018859 Ry

     iteration #  3     ecut=    60.00 Ry     beta=0.70
     Davidson diagonalization with overlap
     ethr =  1.82E-07,  avg # of iterations =  2.0

     total cpu time spent up to now is      146.2 secs

     total energy              =    -176.85991041 Ry
     Harris-Foulkes estimate   =    -176.85992238 Ry
     estimated scf accuracy    <       0.00002175 Ry

     iteration #  4     ecut=    60.00 Ry     beta=0.70
     Davidson diagonalization with overlap
     ethr =  6.80E-08,  avg # of iterations =  2.0

     total cpu time spent up to now is      153.5 secs

     total energy              =    -176.85991561 Ry
     Harris-Foulkes estimate   =    -176.85991569 Ry
     estimated scf accuracy    <       0.00000018 Ry

     iteration #  5     ecut=    60.00 Ry     beta=0.70
     Davidson diagonalization with overlap
     ethr =  5.78E-10,  avg # of iterations =  2.0

     total cpu time spent up to now is      160.2 secs

     total energy              =    -176.85991566 Ry
     Harris-Foulkes estimate   =    -176.85991567 Ry
     estimated scf accuracy    <       0.00000004 Ry

     iteration #  6     ecut=    60.00 Ry     beta=0.70
     Davidson diagonalization with overlap
     ethr =  1.37E-10,  avg # of iterations =  2.0

     total cpu time spent up to now is      166.8 secs

     total energy              =    -176.85991566 Ry
     Harris-Foulkes estimate   =    -176.85991567 Ry
     estimated scf accuracy    <       0.00000002 Ry

     iteration #  7     ecut=    60.00 Ry     beta=0.70
     Davidson diagonalization with overlap
     ethr =  6.39E-11,  avg # of iterations =  2.0

     total cpu time spent up to now is      173.9 secs

     End of self-consistent calculation

          k = 0.0152 0.0263 0.0093 (  6158 PWs)   bands (ev):

   -21.4937 -21.1067 -20.4119 -19.9592  -8.8881  -8.8007  -8.7255  -8.6965
    -6.7982  -6.0285  -5.0108  -4.2386  -3.3435  -3.3192  -3.1893  -3.1427

          k = 0.0152 0.0263 0.0279 (  6160 PWs)   bands (ev):

   -21.4071 -21.2560 -20.2438 -20.0655  -8.8344  -8.7756  -8.7640  -8.7292
    -6.6153  -6.3111  -4.7447  -4.4407  -3.3077  -3.2805  -3.2362  -3.1966

          k = 0.0152 0.0615 0.0093 (  6172 PWs)   bands (ev):

   -21.1984 -20.8545 -20.6801 -20.3099  -8.9427  -8.8886  -8.8381  -8.7897
    -6.3448  -5.7071  -5.3082  -4.6643  -3.2426  -3.1961  -3.1153  -3.0571

          k = 0.0152 0.0615 0.0279 (  6182 PWs)   bands (ev):

   -21.1332 -21.0127 -20.5146 -20.3833  -8.9139  -8.8866  -8.8282  -8.7992
    -6.2527  -6.0308  -4.9967  -4.7722  -3.2266  -3.1968  -3.1337  -3.0957

          k = 0.0152-0.0439 0.0093 (  6179 PWs)   bands (ev):

   -21.3526 -20.9664 -20.5630 -20.1308  -8.9183  -8.8666  -8.8117  -8.7440
    -6.5607  -5.7746  -5.2082  -4.4430  -3.2895  -3.2719  -3.1660  -3.0888

          k = 0.0152-0.0439 0.0279 (  6153 PWs)   bands (ev):

   -21.2725 -21.1279 -20.3884 -20.2248  -8.8783  -8.8657  -8.8064  -8.7683
    -6.4124  -6.1228  -4.8806  -4.6000  -3.2726  -3.2590  -3.1798  -3.1410

          k = 0.0152-0.0088 0.0093 (  6169 PWs)   bands (ev):

   -21.5725 -21.1870 -20.3219 -19.8595  -8.8573  -8.7589  -8.6963  -8.6684
    -6.9323  -6.1769  -4.8305  -4.0782  -3.3855  -3.3485  -3.2780  -3.1832

          k = 0.0152-0.0088 0.0279 (  6154 PWs)   bands (ev):

   -21.4835 -21.3310 -20.1558 -19.9714  -8.8057  -8.7404  -8.7353  -8.7006
    -6.7336  -6.4285  -4.5948  -4.2925  -3.3497  -3.3367  -3.3001  -3.2393

          k = 0.0455 0.0439 0.0093 (  6171 PWs)   bands (ev):

   -21.1982 -20.8551 -20.6810 -20.3105  -8.9390  -8.8784  -8.8186  -8.7628
    -6.3605  -5.7992  -5.3120  -4.6830  -3.2233  -3.2121  -3.0658  -3.0337

          k = 0.0455 0.0439 0.0279 (  6176 PWs)   bands (ev):

   -21.1332 -21.0130 -20.5156 -20.3840  -8.8946  -8.8456  -8.8371  -8.7926
    -6.2750  -6.0720  -5.0387  -4.8071  -3.1935  -3.1599  -3.1255  -3.0856

          k = 0.0455 0.0790 0.0093 (  6186 PWs)   bands (ev):

   -21.0774 -20.9097 -20.6233 -20.4450  -8.9627  -8.8888  -8.8477  -8.8201
    -6.1382  -5.8352  -5.1649  -4.8783  -3.2217  -3.1552  -3.1176  -3.0386

          k = 0.0455 0.0790 0.0279 (  6185 PWs)   bands (ev):

   -21.0379 -20.9718 -20.5586 -20.4880  -8.9381  -8.9023  -8.8284  -8.8149
    -6.1161  -6.0035  -5.0147  -4.9090  -3.2040  -3.1790  -3.1189  -3.0761

          k = 0.0455-0.0264 0.0093 (  6169 PWs)   bands (ev):

   -21.2992 -20.9173 -20.6151 -20.1942  -8.9346  -8.8695  -8.8088  -8.7633
    -6.4982  -5.7357  -5.2700  -4.5131  -3.2715  -3.2392  -3.1428  -3.0770

          k = 0.0455-0.0264 0.0279 (  6165 PWs)   bands (ev):

   -21.2230 -21.0836 -20.4378 -20.2823  -8.8913  -8.8689  -8.8082  -8.7824
    -6.3663  -6.0931  -4.9285  -4.6579  -3.2542  -3.2299  -3.1605  -3.1238

          k = 0.0455 0.0088 0.0093 (  6172 PWs)   bands (ev):

   -21.3526 -20.9667 -20.5640 -20.1314  -8.9209  -8.8515  -8.7725  -8.7352
    -6.5792  -5.8315  -5.2448  -4.4774  -3.2758  -3.2578  -3.1034  -3.0861

          k = 0.0455 0.0088 0.0279 (  6154 PWs)   bands (ev):

   -21.2727 -21.1282 -20.3892 -20.2255  -8.8687  -8.8210  -8.8026  -8.7678
    -6.4343  -6.1564  -4.9324  -4.6467  -3.2410  -3.2100  -3.1648  -3.1344

          k =-0.0152 0.0263-0.0093 (  6158 PWs)   bands (ev):

   -21.4939 -21.1068 -20.4113 -19.9586  -8.8845  -8.7854  -8.7687  -8.7023
    -6.7882  -6.0045  -4.9841  -4.2127  -3.3484  -3.3312  -3.2457  -3.1290

          k =-0.0152 0.0263-0.0279 (  6160 PWs)   bands (ev):

   -21.4073 -21.2561 -20.2432 -20.0650  -8.8260  -8.7832  -8.7787  -8.7446
    -6.6033  -6.2938  -4.7144  -4.4114  -3.3237  -3.3147  -3.2547  -3.1901

          k =-0.0152 0.0615-0.0093 (  6172 PWs)   bands (ev):

   -21.1988 -20.8544 -20.6798 -20.3095  -8.9420  -8.9136  -8.8213  -8.7911
    -6.3448  -5.7075  -5.2877  -4.6566  -3.2452  -3.2093  -3.0979  -3.0787

          k =-0.0152 0.0615-0.0279 (  6182 PWs)   bands (ev):

   -21.1335 -21.0128 -20.5143 -20.3829  -8.9199  -8.9070  -8.8153  -8.7943
    -6.2520  -6.0287  -4.9816  -4.7609  -3.2278  -3.2164  -3.1190  -3.1112

          k =-0.0152-0.0439-0.0093 (  6179 PWs)   bands (ev):

   -21.3523 -20.9662 -20.5638 -20.1314  -8.9079  -8.8639  -8.7893  -8.7548
    -6.5660  -5.7871  -5.2426  -4.4643  -3.2874  -3.2528  -3.1418  -3.0825

          k =-0.0152-0.0439-0.0279 (  6153 PWs)   bands (ev):

   -21.2722 -21.1278 -20.3891 -20.2254  -8.8579  -8.8382  -8.8147  -8.7840
    -6.4191  -6.1332  -4.9128  -4.6275  -3.2624  -3.2221  -3.1807  -3.1318

          k =-0.0152-0.0088-0.0093 (  6169 PWs)   bands (ev):

   -21.5724 -21.1869 -20.3222 -19.8597  -8.8637  -8.7565  -8.6977  -8.6485
    -6.9378  -6.1888  -4.8415  -4.0912  -3.3719  -3.3560  -3.2391  -3.1998

          k =-0.0152-0.0088-0.0279 (  6154 PWs)   bands (ev):

   -21.4835 -21.3310 -20.1561 -19.9717  -8.8151  -8.7468  -8.7252  -8.6807
    -6.7401  -6.4375  -4.6078  -4.3058  -3.3371  -3.3212  -3.2886  -3.2500

          k =-0.0456 0.0439-0.0093 (  6171 PWs)   bands (ev):

   -21.2000 -20.8548 -20.6797 -20.3084  -8.9447  -8.9095  -8.8171  -8.7910
    -6.3478  -5.7072  -5.2882  -4.6567  -3.2453  -3.2088  -3.0976  -3.0809

          k =-0.0456 0.0439-0.0279 (  6176 PWs)   bands (ev):

   -21.1345 -21.0136 -20.5137 -20.3820  -8.9191  -8.9042  -8.8134  -8.7943
    -6.2540  -6.0295  -4.9817  -4.7610  -3.2275  -3.2160  -3.1195  -3.1127

          k =-0.0456 0.0790-0.0093 (  6186 PWs)   bands (ev):

   -21.0753 -20.9117 -20.6223 -20.4468  -8.9507  -8.8833  -8.8368  -8.8239
    -6.1290  -5.8786  -5.1903  -4.8802  -3.2091  -3.1705  -3.0956  -3.0184

          k =-0.0456 0.0790-0.0279 (  6185 PWs)   bands (ev):

   -21.0367 -20.9720 -20.5590 -20.4894  -8.9210  -8.8730  -8.8451  -8.8210
    -6.1175  -6.0234  -5.0443  -4.9246  -3.1898  -3.1453  -3.1323  -3.0654

          k =-0.0455-0.0263-0.0093 (  6169 PWs)   bands (ev):

   -21.2980 -20.9168 -20.6170 -20.1958  -8.9415  -8.8446  -8.7979  -8.7233
    -6.5200  -5.8347  -5.2810  -4.5447  -3.2505  -3.2429  -3.0707  -3.0654

          k =-0.0455-0.0263-0.0279 (  6165 PWs)   bands (ev):

   -21.2221 -21.0831 -20.4395 -20.2840  -8.8878  -8.8274  -8.8097  -8.7596
    -6.3946  -6.1415  -4.9792  -4.7051  -3.2099  -3.1918  -3.1318  -3.1205

          k =-0.0455 0.0088-0.0093 (  6172 PWs)   bands (ev):

   -21.3530 -20.9669 -20.5632 -20.1307  -8.9122  -8.8584  -8.7839  -8.7555
    -6.5689  -5.7885  -5.2420  -4.4638  -3.2866  -3.2535  -3.1420  -3.0837

          k =-0.0455 0.0088-0.0279 (  6154 PWs)   bands (ev):

   -21.2730 -21.1284 -20.3886 -20.2248  -8.8594  -8.8344  -8.8097  -8.7856
    -6.4212  -6.1346  -4.9125  -4.6272  -3.2619  -3.2220  -3.1817  -3.1329

     highest occupied level (ev):    -3.0184

* XDM dispersion
  a1 =     0.651200
  a2 (ang) =     1.463300
  a2 (bohr) =     2.765236

+ van der Waals energies, forces and stresses (Ry,bohr)
  Evdw(total,Ry)   =  -3.536804691273E-02
  Evdw(C6,Ry)      =  -1.900539784195E-02
  Evdw(C8,Ry)      =  -9.614341805328E-03
  Evdw(C10,Ry)     =  -6.748307265450E-03
  Fvdw (001,Ry/bohr) =   1.602219707658E-05   9.054758344679E-06  -3.841085172241E-05
  Fvdw (002,Ry/bohr) =   1.666388581595E-06  -1.640278001012E-05  -1.613181437523E-06
  Fvdw (003,Ry/bohr) =  -1.394837273342E-05   9.652924411697E-06  -1.697473489921E-06
  Fvdw (004,Ry/bohr) =   1.230207100118E-05   6.653243202988E-06   2.887431140749E-05
  Fvdw (005,Ry/bohr) =   5.433638338446E-06   2.683471119104E-06   1.844916543742E-05
  Fvdw (006,Ry/bohr) =  -1.447084496216E-05  -7.957471036949E-06  -5.608616514714E-06
  Fvdw (007,Ry/bohr) =  -1.230808867036E-05  -6.653529362031E-06   2.887704883066E-05
  Fvdw (008,Ry/bohr) =  -5.432922497398E-06  -2.683127916406E-06   1.845046632808E-05
  Fvdw (009,Ry/bohr) =   1.447085505963E-05   7.957048751262E-06  -5.606642266988E-06
  Fvdw (010,Ry/bohr) =  -1.601647576783E-05  -9.054283214116E-06  -3.840894212677E-05
  Fvdw (011,Ry/bohr) =   1.394862204028E-05  -9.653244744630E-06  -1.694441107567E-06
  Fvdw (012,Ry/bohr) =  -1.667067466549E-06   1.640299045452E-05  -1.610843337758E-06
  sigma_vdw (Ry/bohr**3) =  -4.957703865564E-05  -8.237069354537E-12   1.878099047572E-11  
                            -8.237069354537E-12  -4.959592353164E-05   3.130763132652E-12  
                             1.878099047572E-11   3.130763132652E-12  -5.116032013396E-05  
  sigma_vdw (GPa) =  -7.293032949520E-01  -1.211714532354E-07   2.762778618453E-07  
                     -1.211714532354E-07  -7.295811010224E-01   4.605510797481E-08  
                      2.762778618453E-07   4.605510797481E-08  -7.525941656915E-01  


!    total energy              =    -176.89528371 Ry
     Harris-Foulkes estimate   =    -176.89528371 Ry
     estimated scf accuracy    <          1.0E-09 Ry

     total all-electron energy =      -612.273059 Ry

     The total energy is the sum of the following terms:

     one-electron contribution =    -111.70090694 Ry
     hartree contribution      =      67.18721551 Ry
     xc contribution           =     -35.78366511 Ry
     ewald contribution        =     -58.20087932 Ry
     Dispersion XDM Correction =      -0.03536805 Ry
     one-center paw contrib.   =     -38.36167980 Ry

     convergence has been achieved in   7 iterations

     Forces acting on atoms (Ry/au):

     atom    1 type  2   force =    -0.00040242    0.00164685   -0.00015226
     atom    2 type  1   force =    -0.00018274   -0.00058523    0.00021961
     atom    3 type  1   force =     0.00086132   -0.00074987   -0.00036281
     atom    4 type  2   force =     0.00140856    0.00072384    0.00036745
     atom    5 type  1   force =    -0.00035048   -0.00013349   -0.00040838
     atom    6 type  1   force =    -0.00085555   -0.00055272    0.00033639
     atom    7 type  2   force =    -0.00140856   -0.00072384    0.00036745
     atom    8 type  1   force =     0.00035048    0.00013349   -0.00040838
     atom    9 type  1   force =     0.00085555    0.00055272    0.00033639
     atom   10 type  2   force =     0.00040242   -0.00164685   -0.00015226
     atom   11 type  1   force =    -0.00086132    0.00074987   -0.00036281
     atom   12 type  1   force =     0.00018274    0.00058523    0.00021961

     Total force =     0.004209     Total SCF correction =     0.000048


     entering subroutine stress ...

          total   stress  (Ry/bohr**3)                   (kbar)     P=    0.28
   0.00000238  -0.00000335   0.00000000          0.35     -0.49      0.00
  -0.00000335  -0.00000175   0.00000000         -0.49     -0.26      0.00
   0.00000000   0.00000000   0.00000507          0.00      0.00      0.75


     number of scf cycles    =   2
     number of bfgs steps    =   1

     enthalpy old            =    -176.8952736328 Ry
     enthalpy new            =    -176.8952837077 Ry

     CASE: enthalpy_new < enthalpy_old

     new trust radius        =       0.0009483282 bohr
     new conv_thr            =       0.0000000001 Ry

     new unit-cell volume =    786.81259 a.u.^3 (   116.59359 Ang^3 )

CELL_PARAMETERS (alat=  1.00000000)
   8.234291514   0.001496714   0.000000000
  -4.115852350   7.115983191   0.000000000
   0.000000000   0.000000000  13.426551811

ATOMIC_POSITIONS (crystal)
o        0.328076517   0.663890408   0.064854209
h        0.458987356   0.914482672   0.016348559
h        0.458896058   0.544570754   0.016380902
o        0.662312957   0.331191219   0.940083070
h        0.668045893   0.334028380   0.798696335
h        0.916242876   0.458119990   0.982947395
o        0.337692694   0.668808258   0.440083552
h        0.331959755   0.665971246   0.298696721
h        0.083762827   0.541879268   0.482947520
o        0.671926101   0.336108704   0.564854375
h        0.541106543   0.455428154   0.516381454
h        0.541014963   0.085516097   0.516348929



     Writing output data file crystal.save
     NEW-OLD atomic charge density approx. for the potential
     extrapolated charge   32.00630, renormalised to   32.00000

     total cpu time spent up to now is      191.3 secs

     per-process dynamical memory:    80.0 Mb

     Self-consistent Calculation

     iteration #  1     ecut=    60.00 Ry     beta=0.70
     Davidson diagonalization with overlap
     ethr =  1.00E-06,  avg # of iterations =  2.0

     Threshold (ethr) on eigenvalues was too large:
     Diagonalizing with lowered threshold

     Davidson diagonalization with overlap
     ethr =  1.38E-08,  avg # of iterations =  1.2

     total cpu time spent up to now is      210.2 secs

     total energy              =    -176.85992471 Ry
     Harris-Foulkes estimate   =    -176.84254374 Ry
     estimated scf accuracy    <       0.00000439 Ry

     iteration #  2     ecut=    60.00 Ry     beta=0.70
     Davidson diagonalization with overlap
     ethr =  1.37E-08,  avg # of iterations =  3.0

     total cpu time spent up to now is      222.7 secs

     total energy              =    -176.85992983 Ry
     Harris-Foulkes estimate   =    -176.85993549 Ry
     estimated scf accuracy    <       0.00001558 Ry

     iteration #  3     ecut=    60.00 Ry     beta=0.70
     Davidson diagonalization with overlap
     ethr =  1.37E-08,  avg # of iterations =  2.0

     total cpu time spent up to now is      232.9 secs

     total energy              =    -176.85993000 Ry
     Harris-Foulkes estimate   =    -176.85993110 Ry
     estimated scf accuracy    <       0.00000212 Ry

     iteration #  4     ecut=    60.00 Ry     beta=0.70
     Davidson diagonalization with overlap
     ethr =  6.62E-09,  avg # of iterations =  2.0

     total cpu time spent up to now is      244.0 secs

     total energy              =    -176.85993046 Ry
     Harris-Foulkes estimate   =    -176.85993046 Ry
     estimated scf accuracy    <          6.9E-09 Ry

     iteration #  5     ecut=    60.00 Ry     beta=0.70
     Davidson diagonalization with overlap
     ethr =  2.15E-11,  avg # of iterations =  2.0

     total cpu time spent up to now is      254.4 secs

     total energy              =    -176.85993046 Ry
     Harris-Foulkes estimate   =    -176.85993046 Ry
     estimated scf accuracy    <          2.7E-09 Ry

     iteration #  6     ecut=    60.00 Ry     beta=0.70
     Davidson diagonalization with overlap
     ethr =  8.48E-12,  avg # of iterations =  2.0

     total cpu time spent up to now is      264.8 secs

     total energy              =    -176.85993046 Ry
     Harris-Foulkes estimate   =    -176.85993046 Ry
     estimated scf accuracy    <          9.0E-10 Ry

     iteration #  7     ecut=    60.00 Ry     beta=0.70
     Davidson diagonalization with overlap
     ethr =  2.81E-12,  avg # of iterations =  2.0

     total cpu time spent up to now is      275.4 secs

     End of self-consistent calculation

          k = 0.0152 0.0263 0.0093 (  6158 PWs)   bands (ev):

   -21.4941 -21.1076 -20.4127 -19.9606  -8.8927  -8.8023  -8.7292  -8.6983
    -6.7976  -6.0274  -5.0106  -4.2379  -3.3443  -3.3203  -3.1902  -3.1441

          k = 0.0152 0.0263 0.0279 (  6160 PWs)   bands (ev):

   -21.4076 -21.2567 -20.2449 -20.0668  -8.8390  -8.7778  -8.7675  -8.7308
    -6.6144  -6.3101  -4.7444  -4.4402  -3.3082  -3.2818  -3.2371  -3.1980

          k = 0.0152 0.0615 0.0093 (  6172 PWs)   bands (ev):

   -21.1987 -20.8552 -20.6811 -20.3115  -8.9445  -8.8908  -8.8411  -8.7932
    -6.3453  -5.7067  -5.3077  -4.6635  -3.2432  -3.1971  -3.1165  -3.0584

          k = 0.0152 0.0615 0.0279 (  6182 PWs)   bands (ev):

   -21.1336 -21.0132 -20.5159 -20.3847  -8.9154  -8.8878  -8.8324  -8.8031
    -6.2529  -6.0305  -4.9962  -4.7716  -3.2273  -3.1975  -3.1349  -3.0970

          k = 0.0152-0.0439 0.0093 (  6179 PWs)   bands (ev):

   -21.3531 -20.9673 -20.5638 -20.1320  -8.9200  -8.8686  -8.8156  -8.7479
    -6.5601  -5.7738  -5.2084  -4.4430  -3.2897  -3.2730  -3.1666  -3.0901

          k = 0.0152-0.0439 0.0279 (  6153 PWs)   bands (ev):

   -21.2731 -21.1287 -20.3894 -20.2259  -8.8796  -8.8675  -8.8108  -8.7723
    -6.4117  -6.1221  -4.8806  -4.6000  -3.2729  -3.2598  -3.1807  -3.1422

          k = 0.0152-0.0088 0.0093 (  6169 PWs)   bands (ev):

   -21.5730 -21.1879 -20.3226 -19.8608  -8.8608  -8.7616  -8.7012  -8.6702
    -6.9307  -6.1752  -4.8310  -4.0782  -3.3867  -3.3487  -3.2785  -3.1846

          k = 0.0152-0.0088 0.0279 (  6154 PWs)   bands (ev):

   -21.4841 -21.3318 -20.1568 -19.9726  -8.8096  -8.7439  -8.7388  -8.7025
    -6.7321  -6.4270  -4.5951  -4.2926  -3.3501  -3.3373  -3.3008  -3.2406

          k = 0.0455 0.0439 0.0093 (  6171 PWs)   bands (ev):

   -21.1985 -20.8558 -20.6820 -20.3121  -8.9430  -8.8805  -8.8218  -8.7645
    -6.3609  -5.7981  -5.3116  -4.6820  -3.2242  -3.2133  -3.0673  -3.0351

          k = 0.0455 0.0439 0.0279 (  6176 PWs)   bands (ev):

   -21.1335 -21.0135 -20.5168 -20.3855  -8.8983  -8.8495  -8.8387  -8.7944
    -6.2749  -6.0713  -5.0379  -4.8062  -3.1945  -3.1612  -3.1268  -3.0870

          k = 0.0455 0.0790 0.0093 (  6186 PWs)   bands (ev):

   -21.0784 -20.9098 -20.6249 -20.4457  -8.9647  -8.8902  -8.8512  -8.8245
    -6.1365  -5.8365  -5.1637  -4.8784  -3.2222  -3.1568  -3.1184  -3.0394

          k = 0.0455 0.0790 0.0279 (  6185 PWs)   bands (ev):

   -21.0388 -20.9724 -20.5597 -20.4888  -8.9405  -8.9046  -8.8317  -8.8184
    -6.1151  -6.0035  -5.0143  -4.9089  -3.2048  -3.1802  -3.1198  -3.0769

          k = 0.0455-0.0264 0.0093 (  6169 PWs)   bands (ev):

   -21.3000 -20.9185 -20.6156 -20.1950  -8.9347  -8.8725  -8.8143  -8.7672
    -6.4963  -5.7348  -5.2706  -4.5135  -3.2721  -3.2402  -3.1433  -3.0778

          k = 0.0455-0.0264 0.0279 (  6165 PWs)   bands (ev):

   -21.2238 -21.0846 -20.4385 -20.2831  -8.8922  -8.8715  -8.8135  -8.7862
    -6.3647  -6.0921  -4.9289  -4.6583  -3.2549  -3.2308  -3.1611  -3.1246

          k = 0.0455 0.0088 0.0093 (  6172 PWs)   bands (ev):

   -21.3532 -20.9677 -20.5647 -20.1326  -8.9248  -8.8532  -8.7770  -8.7370
    -6.5783  -5.8302  -5.2449  -4.4770  -3.2767  -3.2588  -3.1046  -3.0875

          k = 0.0455 0.0088 0.0279 (  6154 PWs)   bands (ev):

   -21.2733 -21.1290 -20.3902 -20.2266  -8.8729  -8.8231  -8.8067  -8.7694
    -6.4334  -6.1554  -4.9322  -4.6463  -3.2420  -3.2111  -3.1659  -3.1356

          k =-0.0152 0.0263-0.0093 (  6158 PWs)   bands (ev):

   -21.4945 -21.1078 -20.4120 -19.9599  -8.8867  -8.7892  -8.7716  -8.7058
    -6.7869  -6.0031  -4.9847  -4.2129  -3.3495  -3.3313  -3.2462  -3.1303

          k =-0.0152 0.0263-0.0279 (  6160 PWs)   bands (ev):

   -21.4079 -21.2569 -20.2442 -20.0661  -8.8278  -8.7865  -8.7821  -8.7485
    -6.6021  -6.2926  -4.7148  -4.4116  -3.3239  -3.3153  -3.2556  -3.1913

          k =-0.0152 0.0615-0.0093 (  6172 PWs)   bands (ev):

   -21.1991 -20.8551 -20.6808 -20.3110  -8.9443  -8.9145  -8.8252  -8.7948
    -6.3448  -5.7073  -5.2873  -4.6562  -3.2456  -3.2104  -3.0988  -3.0800

          k =-0.0152 0.0615-0.0279 (  6182 PWs)   bands (ev):

   -21.1339 -21.0134 -20.5155 -20.3843  -8.9217  -8.9081  -8.8195  -8.7982
    -6.2519  -6.0284  -4.9813  -4.7605  -3.2282  -3.2173  -3.1201  -3.1124

          k =-0.0152-0.0439-0.0093 (  6179 PWs)   bands (ev):

   -21.3526 -20.9670 -20.5647 -20.1329  -8.9112  -8.8667  -8.7908  -8.7583
    -6.5661  -5.7865  -5.2422  -4.4636  -3.2881  -3.2539  -3.1428  -3.0840

          k =-0.0152-0.0439-0.0279 (  6153 PWs)   bands (ev):

   -21.2727 -21.1283 -20.3902 -20.2268  -8.8600  -8.8415  -8.8165  -8.7879
    -6.4188  -6.1327  -4.9123  -4.6269  -3.2631  -3.2230  -3.1819  -3.1332

          k =-0.0152-0.0088-0.0093 (  6169 PWs)   bands (ev):

   -21.5729 -21.1879 -20.3229 -19.8611  -8.8683  -8.7582  -8.7021  -8.6504
    -6.9365  -6.1873  -4.8417  -4.0909  -3.3732  -3.3565  -3.2397  -3.2013

          k =-0.0152-0.0088-0.0279 (  6154 PWs)   bands (ev):

   -21.4840 -21.3317 -20.1571 -19.9729  -8.8197  -8.7512  -8.7270  -8.6825
    -6.7387  -6.4361  -4.6078  -4.3057  -3.3374  -3.3226  -3.2890  -3.2514

          k =-0.0455 0.0439-0.0093 (  6171 PWs)   bands (ev):

   -21.2010 -20.8556 -20.6806 -20.3091  -8.9450  -8.9120  -8.8225  -8.7947
    -6.3459  -5.7076  -5.2877  -4.6570  -3.2455  -3.2103  -3.0982  -3.0815

          k =-0.0455 0.0439-0.0279 (  6176 PWs)   bands (ev):

   -21.1355 -21.0145 -20.5145 -20.3827  -8.9208  -8.9063  -8.8180  -8.7979
    -6.2526  -6.0289  -4.9819  -4.7613  -3.2280  -3.2171  -3.1202  -3.1134

          k =-0.0456 0.0790-0.0093 (  6186 PWs)   bands (ev):

   -21.0757 -20.9125 -20.6232 -20.4482  -8.9536  -8.8860  -8.8402  -8.8258
    -6.1295  -5.8778  -5.1899  -4.8793  -3.2099  -3.1715  -3.0971  -3.0196

          k =-0.0456 0.0790-0.0279 (  6185 PWs)   bands (ev):

   -21.0371 -20.9726 -20.5602 -20.4907  -8.9238  -8.8759  -8.8479  -8.8234
    -6.1175  -6.0228  -5.0437  -4.9239  -3.1908  -3.1466  -3.1333  -3.0665

          k =-0.0455-0.0263-0.0093 (  6169 PWs)   bands (ev):

   -21.2984 -20.9176 -20.6179 -20.1972  -8.9456  -8.8462  -8.8016  -8.7251
    -6.5198  -5.8335  -5.2806  -4.5439  -3.2513  -3.2442  -3.0723  -3.0667

          k =-0.0455-0.0263-0.0279 (  6165 PWs)   bands (ev):

   -21.2225 -21.0837 -20.4406 -20.2853  -8.8919  -8.8311  -8.8115  -8.7614
    -6.3941  -6.1407  -4.9786  -4.7043  -3.2109  -3.1932  -3.1330  -3.1220

          k =-0.0455 0.0088-0.0093 (  6172 PWs)   bands (ev):

   -21.3537 -20.9680 -20.5638 -20.1318  -8.9131  -8.8629  -8.7872  -8.7592
    -6.5673  -5.7872  -5.2425  -4.4639  -3.2874  -3.2543  -3.1428  -3.0848

          k =-0.0455 0.0088-0.0279 (  6154 PWs)   bands (ev):

   -21.2737 -21.1293 -20.3894 -20.2258  -8.8605  -8.8391  -8.8129  -8.7890
    -6.4198  -6.1334  -4.9127  -4.6273  -3.2626  -3.2228  -3.1825  -3.1339

     highest occupied level (ev):    -3.0196

* XDM dispersion
  a1 =     0.651200
  a2 (ang) =     1.463300
  a2 (bohr) =     2.765236

+ van der Waals energies, forces and stresses (Ry,bohr)
  Evdw(total,Ry)   =  -3.536025890840E-02
  Evdw(C6,Ry)      =  -1.900127025360E-02
  Evdw(C8,Ry)      =  -9.612200760866E-03
  Evdw(C10,Ry)     =  -6.746787893929E-03
  Fvdw (001,Ry/bohr) =   1.618246490887E-05   9.007863138019E-06  -3.831939424066E-05
  Fvdw (002,Ry/bohr) =   1.660774493565E-06  -1.649637335404E-05  -1.595742173355E-06
  Fvdw (003,Ry/bohr) =  -1.400361014428E-05   9.602770249980E-06  -1.668881961259E-06
  Fvdw (004,Ry/bohr) =   1.220119124120E-05   6.824751468614E-06   2.867429254760E-05
  Fvdw (005,Ry/bohr) =   5.398516891557E-06   2.701742418909E-06   1.846125214086E-05
  Fvdw (006,Ry/bohr) =  -1.454036974601E-05  -7.995797264856E-06  -5.558174685756E-06
  Fvdw (007,Ry/bohr) =  -1.220721200230E-05  -6.825042665018E-06   2.867703342258E-05
  Fvdw (008,Ry/bohr) =  -5.397799093109E-06  -2.701399321564E-06   1.846255187784E-05
  Fvdw (009,Ry/bohr) =   1.454038013102E-05   7.995374853746E-06  -5.556200136974E-06
  Fvdw (010,Ry/bohr) =  -1.617674497208E-05  -9.007384986639E-06  -3.831748449783E-05
  Fvdw (011,Ry/bohr) =   1.400386043832E-05  -9.603090617251E-06  -1.665848496458E-06
  Fvdw (012,Ry/bohr) =  -1.661452146746E-06   1.649658608010E-05  -1.593403796574E-06
  sigma_vdw (Ry/bohr**3) =  -4.955611332244E-05   1.222308969754E-09   1.875677289894E-11  
                             1.222308969754E-09  -4.957485414332E-05   3.141977428705E-12  
                             1.875677289894E-11   3.141977428705E-12  -5.113969383275E-05  
  sigma_vdw (GPa) =  -7.289954727249E-01   1.798078270231E-05   2.759216090513E-07  
                      1.798078270231E-05  -7.292711596717E-01   4.622007593749E-08  
                      2.759216090513E-07   4.622007593749E-08  -7.522907423761E-01  


!    total energy              =    -176.89529072 Ry
     Harris-Foulkes estimate   =    -176.89529072 Ry
     estimated scf accuracy    <          9.1E-11 Ry

     total all-electron energy =      -612.273066 Ry

     The total energy is the sum of the following terms:

     one-electron contribution =    -111.71416295 Ry
     hartree contribution      =      67.19276140 Ry
     xc contribution           =     -35.78370618 Ry
     ewald contribution        =     -58.19320370 Ry
     Dispersion XDM Correction =      -0.03536026 Ry
     one-center paw contrib.   =     -38.36161903 Ry

     convergence has been achieved in   7 iterations

     Forces acting on atoms (Ry/au):

     atom    1 type  2   force =     0.00030958    0.00042556   -0.00003577
     atom    2 type  1   force =    -0.00007350    0.00004186   -0.00003232
     atom    3 type  1   force =     0.00021688   -0.00025588   -0.00010809
     atom    4 type  2   force =     0.00052685    0.00036328   -0.00027219
     atom    5 type  1   force =    -0.00021104   -0.00007128    0.00004977
     atom    6 type  1   force =    -0.00025783   -0.00016349    0.00039860
     atom    7 type  2   force =    -0.00052685   -0.00036328   -0.00027219
     atom    8 type  1   force =     0.00021104    0.00007128    0.00004977
     atom    9 type  1   force =     0.00025783    0.00016349    0.00039860
     atom   10 type  2   force =    -0.00030958   -0.00042556   -0.00003577
     atom   11 type  1   force =    -0.00021688    0.00025588   -0.00010809
     atom   12 type  1   force =     0.00007350   -0.00004186   -0.00003232

     Total force =     0.001548     Total SCF correction =     0.000013


     entering subroutine stress ...

          total   stress  (Ry/bohr**3)                   (kbar)     P=    0.29
   0.00000189   0.00000074   0.00000000          0.28      0.11      0.00
   0.00000074   0.00000194   0.00000000          0.11      0.29      0.00
   0.00000000   0.00000000   0.00000217          0.00      0.00      0.32


     bfgs converged in   3 scf cycles and   2 bfgs steps
     (criteria: energy <  1.0E-05, force <  1.0E-03, cell <  5.0E-01)

     End of BFGS Geometry Optimization

     Final enthalpy =    -176.8952907206 Ry
Begin final coordinates
     new unit-cell volume =    786.81259 a.u.^3 (   116.59359 Ang^3 )

CELL_PARAMETERS (alat=  1.00000000)
   8.234291514   0.001496714   0.000000000
  -4.115852350   7.115983191   0.000000000
   0.000000000   0.000000000  13.426551811

ATOMIC_POSITIONS (crystal)
o        0.328076517   0.663890408   0.064854209
h        0.458987356   0.914482672   0.016348559
h        0.458896058   0.544570754   0.016380902
o        0.662312957   0.331191219   0.940083070
h        0.668045893   0.334028380   0.798696335
h        0.916242876   0.458119990   0.982947395
o        0.337692694   0.668808258   0.440083552
h        0.331959755   0.665971246   0.298696721
h        0.083762827   0.541879268   0.482947520
o        0.671926101   0.336108704   0.564854375
h        0.541106543   0.455428154   0.516381454
h        0.541014963   0.085516097   0.516348929
End final coordinates



     A final scf calculation at the relaxed structure.
     The G-vectors are recalculated for the final unit cell
     Results may differ from those at the preceding step.

     Parallelization info
     --------------------
     sticks:   dense  smooth     PW     G-vecs:    dense   smooth      PW
     Min         349     140     39                24413     6162     955
     Max         350     141     40                24416     6181     962
     Sum        2795    1127    313               195319    49381    7647


     Title: 
     crystal                                                                    


     bravais-lattice index     =            0
     lattice parameter (alat)  =       1.0000  a.u.
     unit-cell volume          =     786.8126 (a.u.)^3
     number of atoms/cell      =           12
     number of atomic types    =            2
     number of electrons       =        32.00
     number of Kohn-Sham states=           16
     kinetic-energy cutoff     =      60.0000  Ry
     charge density cutoff     =     600.0000  Ry
     convergence threshold     =      1.0E-10
     mixing beta               =       0.7000
     number of iterations used =            8  plain     mixing
     Exchange-correlation      =  SLA  PW   B86B PBC ( 1  4 22  4 0 0)

     celldm(1)=   1.000000  celldm(2)=   0.000000  celldm(3)=   0.000000
     celldm(4)=   0.000000  celldm(5)=   0.000000  celldm(6)=   0.000000

     crystal axes: (cart. coord. in units of alat)
               a(1) = (   8.234292   0.001497   0.000000 )  
               a(2) = (  -4.115852   7.115983   0.000000 )  
               a(3) = (   0.000000   0.000000  13.426552 )  

     reciprocal axes: (cart. coord. in units 2 pi/alat)
               b(1) = (  0.121431  0.070235 -0.000000 )  
               b(2) = ( -0.000026  0.140514  0.000000 )  
               b(3) = (  0.000000 -0.000000  0.074479 )  


     PseudoPot. # 1 for  H read from file:
     ./h.UPF
     MD5 check sum: a05c38eace8e4bf5ff015d364fdf499b
     Pseudo is Projector augmented-wave, Zval =  1.0
     Generated using "atomic" code by A. Dal Corso  v.5.0.2 svn rev. 10467M
     Shape of augmentation charge: PSQ
     Using radial grid of  929 points,  2 beta functions with: 
                l(1) =   0
                l(2) =   0
     Q(r) pseudized with 0 coefficients 


     PseudoPot. # 2 for  O read from file:
     ./o.UPF
     MD5 check sum: e5d0ebeb85377a04d0834d2ed76ab915
     Pseudo is Projector augmented-wave + core cor, Zval =  6.0
     Generated using "atomic" code by A. Dal Corso  v.5.0.2 svn rev. 10467M
     Shape of augmentation charge: BESSEL
     Using radial grid of 1095 points,  4 beta functions with: 
                l(1) =   0
                l(2) =   0
                l(3) =   1
                l(4) =   1
     Q(r) pseudized with 0 coefficients 


     atomic species   valence    mass     pseudopotential
        h              1.00     1.00794      H( 1.00)
        o              6.00    15.99940      O( 1.00)

      2 Sym. Ops. (no inversion) found ( 1 have fractional translation)



   Cartesian axes

     site n.     atom                  positions (alat units)
         1           o   tau(   1) = (  -0.0309972   4.7247240   0.8707684  )
         2           h   tau(   2) = (   0.0155600   6.5081303   0.2195048  )
         3           h   tau(   3) = (   1.5373111   3.8758432   0.2199390  )
         4           o   tau(   4) = (   4.0905438   2.3577424  12.6220740  )
         5           h   tau(   5) = (   4.1260731   2.3779402  10.7237377  )
         6           h   tau(   6) = (   5.6590567   3.2613455  13.1975941  )
         7           o   tau(   7) = (   0.0279440   4.7597338   5.9088046  )
         8           h   tau(   8) = (  -0.0075859   4.7395370   4.0104670  )
         9           h   tau(   9) = (  -1.5405675   3.8561291   6.4843199  )
        10           o   tau(  10) = (   4.1494616   2.3927496   7.5840465  )
        11           h   tau(  11) = (   2.5811540   3.2416290   6.9332223  )
        12           h   tau(  12) = (   4.1029033   0.6093409   6.9327856  )

     number of k points=    32
                       cart. coord. in units 2pi/alat
        k(    1) = (   0.0151756   0.0263436   0.0093099), wk =   0.0625000
        k(    2) = (   0.0151756   0.0263436   0.0279297), wk =   0.0625000
        k(    3) = (   0.0151692   0.0614721   0.0093099), wk =   0.0625000
        k(    4) = (   0.0151692   0.0614721   0.0279297), wk =   0.0625000
        k(    5) = (   0.0151884  -0.0439134   0.0093099), wk =   0.0625000
        k(    6) = (   0.0151884  -0.0439134   0.0279297), wk =   0.0625000
        k(    7) = (   0.0151820  -0.0087849   0.0093099), wk =   0.0625000
        k(    8) = (   0.0151820  -0.0087849   0.0279297), wk =   0.0625000
        k(    9) = (   0.0455333   0.0439023   0.0093099), wk =   0.0625000
        k(   10) = (   0.0455333   0.0439023   0.0279297), wk =   0.0625000
        k(   11) = (   0.0455269   0.0790308   0.0093099), wk =   0.0625000
        k(   12) = (   0.0455269   0.0790308   0.0279297), wk =   0.0625000
        k(   13) = (   0.0455460  -0.0263546   0.0093099), wk =   0.0625000
        k(   14) = (   0.0455460  -0.0263546   0.0279297), wk =   0.0625000
        k(   15) = (   0.0455397   0.0087738   0.0093099), wk =   0.0625000
        k(   16) = (   0.0455397   0.0087738   0.0279297), wk =   0.0625000
        k(   17) = (  -0.0151852   0.0263491  -0.0093099), wk =   0.0625000
        k(   18) = (  -0.0151852   0.0263491  -0.0279297), wk =   0.0625000
        k(   19) = (  -0.0151916   0.0614776  -0.0093099), wk =   0.0625000
        k(   20) = (  -0.0151916   0.0614776  -0.0279297), wk =   0.0625000
        k(   21) = (  -0.0151724  -0.0439078  -0.0093099), wk =   0.0625000
        k(   22) = (  -0.0151724  -0.0439078  -0.0279297), wk =   0.0625000
        k(   23) = (  -0.0151788  -0.0087794  -0.0093099), wk =   0.0625000
        k(   24) = (  -0.0151788  -0.0087794  -0.0279297), wk =   0.0625000
        k(   25) = (  -0.0455492   0.0439189  -0.0093099), wk =   0.0625000
        k(   26) = (  -0.0455492   0.0439189  -0.0279297), wk =   0.0625000
        k(   27) = (  -0.0455556   0.0790474  -0.0093099), wk =   0.0625000
        k(   28) = (  -0.0455556   0.0790474  -0.0279297), wk =   0.0625000
        k(   29) = (  -0.0455365  -0.0263381  -0.0093099), wk =   0.0625000
        k(   30) = (  -0.0455365  -0.0263381  -0.0279297), wk =   0.0625000
        k(   31) = (  -0.0455429   0.0087904  -0.0093099), wk =   0.0625000
        k(   32) = (  -0.0455429   0.0087904  -0.0279297), wk =   0.0625000

     Dense  grid:   195319 G-vectors     FFT dimensions: (  72,  72, 108)

     Smooth grid:    49381 G-vectors     FFT dimensions: (  45,  45,  72)

     Largest allocated arrays     est. size (Mb)     dimensions
        Kohn-Sham Wavefunctions         0.19 Mb     (     788,   16)
        NL pseudopotentials             0.58 Mb     (     788,   48)
        Each V/rho on FFT grid          1.11 Mb     (   72576)
        Each G-vector array             0.19 Mb     (   24415)
        G-vector shells                 0.09 Mb     (   12018)
     Largest temporary arrays     est. size (Mb)     dimensions
        Auxiliary wavefunctions         0.77 Mb     (     788,   64)
        Each subspace H/S matrix        0.06 Mb     (      64,   64)
        Each <psi_i|beta_j> matrix      0.01 Mb     (      48,   16)
        Arrays for rho mixing           8.86 Mb     (   72576,    8)

     Initial potential from superposition of free atoms

     starting charge   31.99992, renormalised to   32.00000
     Starting wfc are   24 randomized atomic wfcs
     Checking if some PAW data can be deallocated... 

     Writing output data file crystal.save

     total cpu time spent up to now is      296.1 secs

     per-process dynamical memory:    70.8 Mb

     Self-consistent Calculation

     iteration #  1     ecut=    60.00 Ry     beta=0.70
     Davidson diagonalization with overlap
     ethr =  1.00E-06,  avg # of iterations =  6.0

     total cpu time spent up to now is      315.5 secs

     total energy              =    -176.37775729 Ry
     Harris-Foulkes estimate   =    -177.24896772 Ry
     estimated scf accuracy    <       1.18855174 Ry

     iteration #  2     ecut=    60.00 Ry     beta=0.70
     Davidson diagonalization with overlap
     ethr =  3.71E-03,  avg # of iterations =  3.0

     total cpu time spent up to now is      327.0 secs

     total energy              =    -176.68926679 Ry
     Harris-Foulkes estimate   =    -177.11297895 Ry
     estimated scf accuracy    <       0.79576190 Ry

     iteration #  3     ecut=    60.00 Ry     beta=0.70
     Davidson diagonalization with overlap
     ethr =  2.49E-03,  avg # of iterations =  2.0

     total cpu time spent up to now is      337.7 secs

     total energy              =    -176.85684810 Ry
     Harris-Foulkes estimate   =    -176.85890933 Ry
     estimated scf accuracy    <       0.00752788 Ry

     iteration #  4     ecut=    60.00 Ry     beta=0.70
     Davidson diagonalization with overlap
     ethr =  2.35E-05,  avg # of iterations =  2.0

     total cpu time spent up to now is      347.8 secs

     total energy              =    -176.86010895 Ry
     Harris-Foulkes estimate   =    -176.86033563 Ry
     estimated scf accuracy    <       0.00105433 Ry

     iteration #  5     ecut=    60.00 Ry     beta=0.70
     Davidson diagonalization with overlap
     ethr =  3.29E-06,  avg # of iterations =  1.0

     total cpu time spent up to now is      356.5 secs

     total energy              =    -176.85991736 Ry
     Harris-Foulkes estimate   =    -176.86015280 Ry
     estimated scf accuracy    <       0.00057937 Ry

     iteration #  6     ecut=    60.00 Ry     beta=0.70
     Davidson diagonalization with overlap
     ethr =  1.81E-06,  avg # of iterations =  1.7

     total cpu time spent up to now is      365.5 secs

     total energy              =    -176.85993552 Ry
     Harris-Foulkes estimate   =    -176.85996641 Ry
     estimated scf accuracy    <       0.00009765 Ry

     iteration #  7     ecut=    60.00 Ry     beta=0.70
     Davidson diagonalization with overlap
     ethr =  3.05E-07,  avg # of iterations =  2.0

     total cpu time spent up to now is      375.0 secs

     total energy              =    -176.85994086 Ry
     Harris-Foulkes estimate   =    -176.85994964 Ry
     estimated scf accuracy    <       0.00002396 Ry

     iteration #  8     ecut=    60.00 Ry     beta=0.70
     Davidson diagonalization with overlap
     ethr =  7.49E-08,  avg # of iterations =  2.0

     total cpu time spent up to now is      384.2 secs

     total energy              =    -176.85994080 Ry
     Harris-Foulkes estimate   =    -176.85994278 Ry
     estimated scf accuracy    <       0.00000672 Ry

     iteration #  9     ecut=    60.00 Ry     beta=0.70
     Davidson diagonalization with overlap
     ethr =  2.10E-08,  avg # of iterations =  2.0

     total cpu time spent up to now is      393.6 secs

     total energy              =    -176.85994075 Ry
     Harris-Foulkes estimate   =    -176.85994134 Ry
     estimated scf accuracy    <       0.00000162 Ry

     iteration # 10     ecut=    60.00 Ry     beta=0.70
     Davidson diagonalization with overlap
     ethr =  5.05E-09,  avg # of iterations =  1.1

     total cpu time spent up to now is      402.1 secs

     total energy              =    -176.85994083 Ry
     Harris-Foulkes estimate   =    -176.85994083 Ry
     estimated scf accuracy    <       0.00000004 Ry

     iteration # 11     ecut=    60.00 Ry     beta=0.70
     Davidson diagonalization with overlap
     ethr =  1.19E-10,  avg # of iterations =  3.0

     total cpu time spent up to now is      413.0 secs

     total energy              =    -176.85994085 Ry
     Harris-Foulkes estimate   =    -176.85994085 Ry
     estimated scf accuracy    <       0.00000001 Ry

     iteration # 12     ecut=    60.00 Ry     beta=0.70
     Davidson diagonalization with overlap
     ethr =  3.72E-11,  avg # of iterations =  1.0

     total cpu time spent up to now is      421.9 secs

     total energy              =    -176.85994084 Ry
     Harris-Foulkes estimate   =    -176.85994085 Ry
     estimated scf accuracy    <       0.00000001 Ry

     iteration # 13     ecut=    60.00 Ry     beta=0.70
     Davidson diagonalization with overlap
     ethr =  3.72E-11,  avg # of iterations =  3.0

     total cpu time spent up to now is      432.4 secs

     total energy              =    -176.85994086 Ry
     Harris-Foulkes estimate   =    -176.85994087 Ry
     estimated scf accuracy    <       0.00000008 Ry

     iteration # 14     ecut=    60.00 Ry     beta=0.70
     Davidson diagonalization with overlap
     ethr =  3.72E-11,  avg # of iterations =  2.0

     total cpu time spent up to now is      438.8 secs

     total energy              =    -176.85994086 Ry
     Harris-Foulkes estimate   =    -176.85994087 Ry
     estimated scf accuracy    <       0.00000007 Ry

     iteration # 15     ecut=    60.00 Ry     beta=0.70
     Davidson diagonalization with overlap
     ethr =  3.72E-11,  avg # of iterations =  1.0

     total cpu time spent up to now is      445.0 secs

     total energy              =    -176.85994084 Ry
     Harris-Foulkes estimate   =    -176.85994086 Ry
     estimated scf accuracy    <       0.00000005 Ry

     iteration # 16     ecut=    60.00 Ry     beta=0.70
     Davidson diagonalization with overlap
     ethr =  3.72E-11,  avg # of iterations =  3.0

     total cpu time spent up to now is      452.7 secs

     End of self-consistent calculation

          k = 0.0152 0.0263 0.0093 (  6167 PWs)   bands (ev):

   -21.4941 -21.1076 -20.4127 -19.9606  -8.8927  -8.8023  -8.7292  -8.6983
    -6.7975  -6.0274  -5.0106  -4.2379  -3.3443  -3.3203  -3.1902  -3.1441

          k = 0.0152 0.0263 0.0279 (  6165 PWs)   bands (ev):

   -21.4076 -21.2566 -20.2449 -20.0668  -8.8389  -8.7778  -8.7675  -8.7308
    -6.6144  -6.3101  -4.7444  -4.4402  -3.3082  -3.2818  -3.2371  -3.1979

          k = 0.0152 0.0615 0.0093 (  6179 PWs)   bands (ev):

   -21.1987 -20.8551 -20.6811 -20.3115  -8.9445  -8.8908  -8.8411  -8.7932
    -6.3453  -5.7067  -5.3077  -4.6635  -3.2432  -3.1971  -3.1165  -3.0584

          k = 0.0152 0.0615 0.0279 (  6187 PWs)   bands (ev):

   -21.1335 -21.0132 -20.5158 -20.3847  -8.9154  -8.8878  -8.8324  -8.8030
    -6.2528  -6.0305  -4.9962  -4.7716  -3.2273  -3.1975  -3.1349  -3.0970

          k = 0.0152-0.0439 0.0093 (  6183 PWs)   bands (ev):

   -21.3531 -20.9673 -20.5638 -20.1320  -8.9200  -8.8686  -8.8156  -8.7478
    -6.5600  -5.7737  -5.2084  -4.4429  -3.2897  -3.2730  -3.1665  -3.0900

          k = 0.0152-0.0439 0.0279 (  6156 PWs)   bands (ev):

   -21.2731 -21.1286 -20.3894 -20.2259  -8.8796  -8.8675  -8.8108  -8.7723
    -6.4117  -6.1221  -4.8806  -4.6000  -3.2728  -3.2597  -3.1807  -3.1422

          k = 0.0152-0.0088 0.0093 (  6174 PWs)   bands (ev):

   -21.5730 -21.1879 -20.3226 -19.8608  -8.8608  -8.7616  -8.7012  -8.6702
    -6.9307  -6.1752  -4.8309  -4.0782  -3.3867  -3.3486  -3.2784  -3.1846

          k = 0.0152-0.0088 0.0279 (  6156 PWs)   bands (ev):

   -21.4841 -21.3318 -20.1568 -19.9726  -8.8096  -8.7439  -8.7388  -8.7025
    -6.7321  -6.4270  -4.5951  -4.2926  -3.3501  -3.3373  -3.3008  -3.2406

          k = 0.0455 0.0439 0.0093 (  6176 PWs)   bands (ev):

   -21.1984 -20.8558 -20.6820 -20.3120  -8.9430  -8.8805  -8.8218  -8.7644
    -6.3608  -5.7981  -5.3115  -4.6820  -3.2241  -3.2133  -3.0672  -3.0351

          k = 0.0455 0.0439 0.0279 (  6180 PWs)   bands (ev):

   -21.1335 -21.0135 -20.5167 -20.3854  -8.8983  -8.8495  -8.8387  -8.7943
    -6.2749  -6.0713  -5.0379  -4.8062  -3.1945  -3.1612  -3.1267  -3.0869

          k = 0.0455 0.0790 0.0093 (  6194 PWs)   bands (ev):

   -21.0784 -20.9098 -20.6249 -20.4456  -8.9647  -8.8902  -8.8512  -8.8245
    -6.1365  -5.8364  -5.1637  -4.8784  -3.2222  -3.1567  -3.1183  -3.0394

          k = 0.0455 0.0790 0.0279 (  6190 PWs)   bands (ev):

   -21.0388 -20.9724 -20.5596 -20.4888  -8.9405  -8.9046  -8.8316  -8.8184
    -6.1150  -6.0034  -5.0142  -4.9089  -3.2048  -3.1802  -3.1197  -3.0769

          k = 0.0455-0.0264 0.0093 (  6175 PWs)   bands (ev):

   -21.3000 -20.9185 -20.6155 -20.1950  -8.9346  -8.8724  -8.8143  -8.7672
    -6.4963  -5.7347  -5.2706  -4.5135  -3.2720  -3.2402  -3.1433  -3.0778

          k = 0.0455-0.0264 0.0279 (  6171 PWs)   bands (ev):

   -21.2238 -21.0846 -20.4385 -20.2830  -8.8922  -8.8715  -8.8135  -8.7862
    -6.3647  -6.0921  -4.9289  -4.6583  -3.2548  -3.2307  -3.1611  -3.1246

          k = 0.0455 0.0088 0.0093 (  6175 PWs)   bands (ev):

   -21.3532 -20.9677 -20.5647 -20.1326  -8.9247  -8.8532  -8.7770  -8.7370
    -6.5783  -5.8302  -5.2449  -4.4770  -3.2767  -3.2588  -3.1046  -3.0874

          k = 0.0455 0.0088 0.0279 (  6160 PWs)   bands (ev):

   -21.2732 -21.1290 -20.3902 -20.2266  -8.8729  -8.8231  -8.8067  -8.7693
    -6.4334  -6.1553  -4.9321  -4.6463  -3.2420  -3.2110  -3.1659  -3.1356

          k =-0.0152 0.0263-0.0093 (  6165 PWs)   bands (ev):

   -21.4944 -21.1078 -20.4119 -19.9599  -8.8867  -8.7892  -8.7716  -8.7058
    -6.7869  -6.0031  -4.9847  -4.2128  -3.3495  -3.3313  -3.2462  -3.1302

          k =-0.0152 0.0263-0.0279 (  6166 PWs)   bands (ev):

   -21.4078 -21.2569 -20.2442 -20.0661  -8.8278  -8.7864  -8.7821  -8.7485
    -6.6021  -6.2926  -4.7148  -4.4116  -3.3239  -3.3153  -3.2556  -3.1913

          k =-0.0152 0.0615-0.0093 (  6179 PWs)   bands (ev):

   -21.1991 -20.8551 -20.6808 -20.3110  -8.9443  -8.9145  -8.8252  -8.7948
    -6.3448  -5.7073  -5.2873  -4.6561  -3.2456  -3.2104  -3.0987  -3.0800

          k =-0.0152 0.0615-0.0279 (  6188 PWs)   bands (ev):

   -21.1339 -21.0133 -20.5155 -20.3842  -8.9217  -8.9081  -8.8194  -8.7982
    -6.2519  -6.0284  -4.9812  -4.7605  -3.2282  -3.2172  -3.1201  -3.1124

          k =-0.0152-0.0439-0.0093 (  6183 PWs)   bands (ev):

   -21.3526 -20.9669 -20.5647 -20.1328  -8.9111  -8.8667  -8.7907  -8.7583
    -6.5661  -5.7864  -5.2422  -4.4636  -3.2881  -3.2538  -3.1428  -3.0840

          k =-0.0152-0.0439-0.0279 (  6157 PWs)   bands (ev):

   -21.2727 -21.1283 -20.3902 -20.2267  -8.8600  -8.8414  -8.8165  -8.7879
    -6.4188  -6.1327  -4.9123  -4.6269  -3.2631  -3.2230  -3.1819  -3.1332

          k =-0.0152-0.0088-0.0093 (  6175 PWs)   bands (ev):

   -21.5729 -21.1878 -20.3229 -19.8610  -8.8683  -8.7582  -8.7021  -8.6504
    -6.9364  -6.1873  -4.8417  -4.0908  -3.3732  -3.3564  -3.2397  -3.2013

          k =-0.0152-0.0088-0.0279 (  6158 PWs)   bands (ev):

   -21.4840 -21.3317 -20.1570 -19.9729  -8.8196  -8.7512  -8.7270  -8.6825
    -6.7387  -6.4361  -4.6077  -4.3056  -3.3374  -3.3226  -3.2890  -3.2514

          k =-0.0455 0.0439-0.0093 (  6176 PWs)   bands (ev):

   -21.2009 -20.8556 -20.6806 -20.3091  -8.9450  -8.9120  -8.8225  -8.7947
    -6.3458  -5.7076  -5.2877  -4.6570  -3.2455  -3.2103  -3.0982  -3.0815

          k =-0.0455 0.0439-0.0279 (  6180 PWs)   bands (ev):

   -21.1355 -21.0145 -20.5145 -20.3827  -8.9207  -8.9063  -8.8180  -8.7979
    -6.2526  -6.0289  -4.9818  -4.7613  -3.2280  -3.2171  -3.1202  -3.1134

          k =-0.0456 0.0790-0.0093 (  6196 PWs)   bands (ev):

   -21.0757 -20.9125 -20.6232 -20.4482  -8.9536  -8.8860  -8.8402  -8.8258
    -6.1295  -5.8777  -5.1898  -4.8793  -3.2099  -3.1715  -3.0971  -3.0196

          k =-0.0456 0.0790-0.0279 (  6188 PWs)   bands (ev):

   -21.0371 -20.9725 -20.5601 -20.4907  -8.9238  -8.8759  -8.8479  -8.8234
    -6.1175  -6.0228  -5.0437  -4.9239  -3.1908  -3.1466  -3.1333  -3.0665

          k =-0.0455-0.0263-0.0093 (  6174 PWs)   bands (ev):

   -21.2984 -20.9176 -20.6179 -20.1972  -8.9456  -8.8462  -8.8016  -8.7251
    -6.5198  -5.8335  -5.2806  -4.5439  -3.2513  -3.2442  -3.0722  -3.0667

          k =-0.0455-0.0263-0.0279 (  6169 PWs)   bands (ev):

   -21.2225 -21.0837 -20.4406 -20.2852  -8.8919  -8.8311  -8.8115  -8.7613
    -6.3941  -6.1406  -4.9785  -4.7043  -3.2109  -3.1932  -3.1330  -3.1220

          k =-0.0455 0.0088-0.0093 (  6174 PWs)   bands (ev):

   -21.3537 -20.9680 -20.5638 -20.1317  -8.9131  -8.8629  -8.7872  -8.7591
    -6.5673  -5.7871  -5.2425  -4.4639  -3.2874  -3.2543  -3.1428  -3.0848

          k =-0.0455 0.0088-0.0279 (  6159 PWs)   bands (ev):

   -21.2737 -21.1293 -20.3894 -20.2258  -8.8605  -8.8390  -8.8129  -8.7890
    -6.4198  -6.1334  -4.9126  -4.6273  -3.2626  -3.2228  -3.1825  -3.1339

     highest occupied level (ev):    -3.0196

* XDM dispersion
  a1 =     0.651200
  a2 (ang) =     1.463300
  a2 (bohr) =     2.765236

+ Volumes and moments
# All results in atomic units (Hartree,bohr)
# i        V             Vfree           M1             M2             M3
  1   2.024717E+01   2.369510E+01   4.322884E+00   3.214914E+01   3.108472E+02
  2   7.382630E+00   1.032844E+01   1.436988E+00   1.340966E+01   2.480039E+02
  3   7.381594E+00   1.032844E+01   1.437411E+00   1.341060E+01   2.479641E+02
  4   2.025574E+01   2.369510E+01   4.324958E+00   3.217145E+01   3.110770E+02
  5   7.376766E+00   1.032844E+01   1.436995E+00   1.339857E+01   2.477153E+02
  6   7.384199E+00   1.032844E+01   1.436849E+00   1.341294E+01   2.480467E+02
  7   2.025569E+01   2.369510E+01   4.324948E+00   3.217136E+01   3.110769E+02
  8   7.376783E+00   1.032844E+01   1.437001E+00   1.339861E+01   2.477158E+02
  9   7.384216E+00   1.032844E+01   1.436862E+00   1.341297E+01   2.480464E+02
 10   2.024716E+01   2.369510E+01   4.322885E+00   3.214913E+01   3.108468E+02
 11   7.381573E+00   1.032844E+01   1.437404E+00   1.341057E+01   2.479641E+02
 12   7.382622E+00   1.032844E+01   1.436986E+00   1.340964E+01   2.480037E+02

+ Dispersion coefficients
# All results in atomic units (Hartree,bohr).
# i   j      C6             C8             C10            Rc            Rvdw
  1   1   9.995865E+00   2.230167E+02   5.197099E+03   4.775318E+00   5.874923E+00
  2   1   4.496437E+00   1.130994E+02   3.509321E+03   5.290385E+00   6.210335E+00
  2   2   2.310957E+00   6.469603E+01   2.440575E+03   5.711229E+00   6.484388E+00
  3   1   4.497127E+00   1.131027E+02   3.508862E+03   5.290007E+00   6.210089E+00
  3   2   2.311135E+00   6.469377E+01   2.440212E+03   5.710906E+00   6.484178E+00
  3   3   2.311312E+00   6.469151E+01   2.439848E+03   5.710583E+00   6.483968E+00
  4   1   1.000038E+01   2.231413E+02   5.200317E+03   4.775518E+00   5.875053E+00
  4   2   4.498423E+00   1.131601E+02   3.511320E+03   5.290551E+00   6.210443E+00
  4   3   4.499113E+00   1.131634E+02   3.510860E+03   5.290174E+00   6.210197E+00
  4   4   1.000489E+01   2.232660E+02   5.203537E+03   4.775717E+00   5.875183E+00
  5   1   4.495297E+00   1.130184E+02   3.505528E+03   5.289295E+00   6.209625E+00
  5   2   2.310045E+00   6.464361E+01   2.437977E+03   5.710283E+00   6.483773E+00
  5   3   2.310222E+00   6.464135E+01   2.437614E+03   5.709961E+00   6.483563E+00
  5   4   4.497282E+00   1.130791E+02   3.507525E+03   5.289461E+00   6.209733E+00
  5   5   2.309133E+00   6.459122E+01   2.435382E+03   5.709338E+00   6.483157E+00
  6   1   4.496452E+00   1.131213E+02   3.510199E+03   5.290705E+00   6.210544E+00
  6   2   2.311091E+00   6.471083E+01   2.441220E+03   5.711514E+00   6.484574E+00
  6   3   2.311268E+00   6.470857E+01   2.440857E+03   5.711191E+00   6.484364E+00
  6   4   4.498437E+00   1.131820E+02   3.512198E+03   5.290872E+00   6.210652E+00
  6   5   2.310178E+00   6.465839E+01   2.438622E+03   5.710568E+00   6.483958E+00
  6   6   2.311225E+00   6.472563E+01   2.441866E+03   5.711799E+00   6.484760E+00
  7   1   1.000035E+01   2.231407E+02   5.200307E+03   4.775518E+00   5.875054E+00
  7   2   4.498412E+00   1.131598E+02   3.511312E+03   5.290552E+00   6.210443E+00
  7   3   4.499103E+00   1.131631E+02   3.510853E+03   5.290174E+00   6.210198E+00
  7   4   1.000487E+01   2.232654E+02   5.203527E+03   4.775718E+00   5.875184E+00
  7   5   4.497271E+00   1.130788E+02   3.507517E+03   5.289462E+00   6.209734E+00
  7   6   4.498427E+00   1.131817E+02   3.512190E+03   5.290872E+00   6.210652E+00
  7   7   1.000485E+01   2.232648E+02   5.203516E+03   4.775718E+00   5.875184E+00
  8   1   4.495312E+00   1.130187E+02   3.505535E+03   5.289293E+00   6.209624E+00
  8   2   2.310052E+00   6.464377E+01   2.437983E+03   5.710282E+00   6.483772E+00
  8   3   2.310230E+00   6.464152E+01   2.437619E+03   5.709959E+00   6.483562E+00
  8   4   4.497298E+00   1.130794E+02   3.507532E+03   5.289459E+00   6.209732E+00
  8   5   2.309141E+00   6.459139E+01   2.435387E+03   5.709336E+00   6.483156E+00
  8   6   2.310186E+00   6.465856E+01   2.438627E+03   5.710567E+00   6.483957E+00
  8   7   4.497287E+00   1.130791E+02   3.507525E+03   5.289460E+00   6.209732E+00
  8   8   2.309148E+00   6.459156E+01   2.435392E+03   5.709335E+00   6.483155E+00
  9   1   4.496483E+00   1.131216E+02   3.510198E+03   5.290696E+00   6.210537E+00
  9   2   2.311104E+00   6.471098E+01   2.441220E+03   5.711506E+00   6.484569E+00
  9   3   2.311282E+00   6.470872E+01   2.440856E+03   5.711183E+00   6.484359E+00
  9   4   4.498469E+00   1.131823E+02   3.512197E+03   5.290862E+00   6.210646E+00
  9   5   2.310192E+00   6.465854E+01   2.438622E+03   5.710560E+00   6.483953E+00
  9   6   2.311238E+00   6.472578E+01   2.441866E+03   5.711791E+00   6.484754E+00
  9   7   4.498458E+00   1.131821E+02   3.512189E+03   5.290862E+00   6.210646E+00
  9   8   2.310199E+00   6.465871E+01   2.438627E+03   5.710559E+00   6.483952E+00
  9   9   2.311251E+00   6.472593E+01   2.441865E+03   5.711782E+00   6.484749E+00
 10   1   9.995865E+00   2.230166E+02   5.197096E+03   4.775317E+00   5.874923E+00
 10   2   4.496437E+00   1.130994E+02   3.509319E+03   5.290384E+00   6.210335E+00
 10   3   4.497127E+00   1.131027E+02   3.508860E+03   5.290007E+00   6.210089E+00
 10   4   1.000038E+01   2.231412E+02   5.200314E+03   4.775517E+00   5.875053E+00
 10   5   4.495297E+00   1.130184E+02   3.505526E+03   5.289294E+00   6.209625E+00
 10   6   4.496451E+00   1.131213E+02   3.510197E+03   5.290705E+00   6.210543E+00
 10   7   1.000035E+01   2.231407E+02   5.200303E+03   4.775517E+00   5.875053E+00
 10   8   4.495312E+00   1.130187E+02   3.505534E+03   5.289293E+00   6.209624E+00
 10   9   4.496483E+00   1.131216E+02   3.510196E+03   5.290695E+00   6.210537E+00
 10  10   9.995865E+00   2.230166E+02   5.197093E+03   4.775317E+00   5.874922E+00
 11   1   4.497110E+00   1.131024E+02   3.508857E+03   5.290011E+00   6.210091E+00
 11   2   2.311126E+00   6.469360E+01   2.440208E+03   5.710909E+00   6.484180E+00
 11   3   2.311304E+00   6.469134E+01   2.439844E+03   5.710586E+00   6.483970E+00
 11   4   4.499096E+00   1.131631E+02   3.510855E+03   5.290177E+00   6.210200E+00
 11   5   2.310214E+00   6.464118E+01   2.437610E+03   5.709963E+00   6.483564E+00
 11   6   2.311260E+00   6.470839E+01   2.440853E+03   5.711194E+00   6.484366E+00
 11   7   4.499085E+00   1.131628E+02   3.510848E+03   5.290177E+00   6.210200E+00
 11   8   2.310221E+00   6.464134E+01   2.437615E+03   5.709962E+00   6.483563E+00
 11   9   2.311273E+00   6.470854E+01   2.440852E+03   5.711186E+00   6.484360E+00
 11  10   4.497109E+00   1.131024E+02   3.508855E+03   5.290010E+00   6.210091E+00
 11  11   2.311295E+00   6.469116E+01   2.439840E+03   5.710589E+00   6.483972E+00
 12   1   4.496431E+00   1.130993E+02   3.509318E+03   5.290386E+00   6.210335E+00
 12   2   2.310954E+00   6.469596E+01   2.440573E+03   5.711229E+00   6.484389E+00
 12   3   2.311132E+00   6.469370E+01   2.440209E+03   5.710906E+00   6.484178E+00
 12   4   4.498417E+00   1.131600E+02   3.511316E+03   5.290552E+00   6.210444E+00
 12   5   2.310042E+00   6.464353E+01   2.437975E+03   5.710284E+00   6.483773E+00
 12   6   2.311088E+00   6.471075E+01   2.441218E+03   5.711514E+00   6.484574E+00
 12   7   4.498406E+00   1.131597E+02   3.511309E+03   5.290552E+00   6.210444E+00
 12   8   2.310049E+00   6.464370E+01   2.437980E+03   5.710282E+00   6.483772E+00
 12   9   2.311101E+00   6.471090E+01   2.441218E+03   5.711506E+00   6.484569E+00
 12  10   4.496431E+00   1.130992E+02   3.509316E+03   5.290385E+00   6.210335E+00
 12  11   2.311123E+00   6.469352E+01   2.440205E+03   5.710909E+00   6.484180E+00
 12  12   2.310951E+00   6.469588E+01   2.440571E+03   5.711229E+00   6.484389E+00

+ van der Waals energies, forces and stresses (Ry,bohr)
  Evdw(total,Ry)   =  -3.537516738237E-02
  Evdw(C6,Ry)      =  -1.900923654754E-02
  Evdw(C8,Ry)      =  -9.616261897673E-03
  Evdw(C10,Ry)     =  -6.749668937151E-03
  Fvdw (001,Ry/bohr) =   1.624550603293E-05   9.020503939962E-06  -3.833760054756E-05
  Fvdw (002,Ry/bohr) =   1.672226078409E-06  -1.654568809293E-05  -1.588340118924E-06
  Fvdw (003,Ry/bohr) =  -1.400515928800E-05   9.608370522424E-06  -1.668541470233E-06
  Fvdw (004,Ry/bohr) =   1.214475106176E-05   6.841419510709E-06   2.870867584223E-05
  Fvdw (005,Ry/bohr) =   5.387686682105E-06   2.706365318227E-06   1.843384199339E-05
  Fvdw (006,Ry/bohr) =  -1.454578254370E-05  -7.992448965091E-06  -5.554848435770E-06
  Fvdw (007,Ry/bohr) =  -1.215084699319E-05  -6.841641407838E-06   2.871138324268E-05
  Fvdw (008,Ry/bohr) =  -5.386973917409E-06  -2.706010743893E-06   1.843503334936E-05
  Fvdw (009,Ry/bohr) =   1.454576737971E-05   7.992025083714E-06  -5.552833430856E-06
  Fvdw (010,Ry/bohr) =  -1.623968558566E-05  -9.020032130939E-06  -3.833536701672E-05
  Fvdw (011,Ry/bohr) =   1.400540186019E-05  -9.608684243970E-06  -1.665450752468E-06
  Fvdw (012,Ry/bohr) =  -1.672890767147E-06   1.654582120962E-05  -1.585952655136E-06
  sigma_vdw (Ry/bohr**3) =  -4.957685789224E-05   9.836940355109E-10   1.879827089263E-11  
                             9.836940355109E-10  -4.959554317701E-05   3.107473081819E-12  
                             1.879827089263E-11   3.107473081819E-12  -5.116119620054E-05  
  sigma_vdw (GPa) =  -7.293006358310E-01   1.447063642316E-05   2.765320655116E-07  
                      1.447063642316E-05  -7.295755058136E-01   4.571249955623E-08  
                      2.765320655116E-07   4.571249955623E-08  -7.526070530736E-01  


!    total energy              =    -176.89531601 Ry
     Harris-Foulkes estimate   =    -176.89531601 Ry
     estimated scf accuracy    <          4.9E-11 Ry

     total all-electron energy =      -612.273092 Ry

     The total energy is the sum of the following terms:

     one-electron contribution =    -111.71412395 Ry
     hartree contribution      =      67.19269822 Ry
     xc contribution           =     -35.78369213 Ry
     ewald contribution        =     -58.19320370 Ry
     Dispersion XDM Correction =      -0.03537517 Ry
     one-center paw contrib.   =     -38.36161928 Ry

     convergence has been achieved in  16 iterations

     Forces acting on atoms (Ry/au):

     atom    1 type  2   force =     0.00031643    0.00042703   -0.00003873
     atom    2 type  1   force =    -0.00007274    0.00004010   -0.00003037
     atom    3 type  1   force =     0.00021601   -0.00025463   -0.00010660
     atom    4 type  2   force =     0.00053014    0.00036591   -0.00027493
     atom    5 type  1   force =    -0.00021063   -0.00007106    0.00005165
     atom    6 type  1   force =    -0.00025846   -0.00016376    0.00039897
     atom    7 type  2   force =    -0.00053014   -0.00036591   -0.00027493
     atom    8 type  1   force =     0.00021063    0.00007106    0.00005165
     atom    9 type  1   force =     0.00025846    0.00016376    0.00039897
     atom   10 type  2   force =    -0.00031643   -0.00042703   -0.00003873
     atom   11 type  1   force =    -0.00021601    0.00025463   -0.00010660
     atom   12 type  1   force =     0.00007274   -0.00004010   -0.00003037

     Total force =     0.001556     Total SCF correction =     0.000015


     entering subroutine stress ...

          total   stress  (Ry/bohr**3)                   (kbar)     P=    0.27
   0.00000175   0.00000073   0.00000000          0.26      0.11      0.00
   0.00000073   0.00000180   0.00000000          0.11      0.26      0.00
   0.00000000   0.00000000   0.00000202          0.00      0.00      0.30


     Writing output data file crystal.save

     init_run     :      9.58s CPU     13.05s WALL (       2 calls)
     electrons    :    304.05s CPU    404.25s WALL (       4 calls)
     update_pot   :     10.22s CPU     12.78s WALL (       2 calls)
     forces       :     11.22s CPU     12.28s WALL (       4 calls)
     stress       :     25.40s CPU     30.58s WALL (       4 calls)

     Called by init_run:
     wfcinit      :      3.42s CPU      5.36s WALL (       2 calls)
     potinit      :      2.52s CPU      3.28s WALL (       2 calls)

     Called by electrons:
     c_bands      :    143.96s CPU    196.20s WALL (      43 calls)
     sum_band     :    116.18s CPU    158.76s WALL (      43 calls)
     v_of_rho     :      6.71s CPU      8.84s WALL (      46 calls)
     newd         :      4.26s CPU      5.17s WALL (      46 calls)
     mix_rho      :      2.02s CPU      2.73s WALL (      43 calls)

     Called by c_bands:
     init_us_2    :      2.85s CPU      3.09s WALL (    3136 calls)
     cegterg      :    140.05s CPU    190.74s WALL (    1376 calls)

     Called by sum_band:
     sum_band:bec :      0.06s CPU      0.06s WALL (    1440 calls)
     addusdens    :      4.68s CPU      5.68s WALL (      43 calls)

     Called by *egterg:
     h_psi        :    123.60s CPU    170.58s WALL (    4332 calls)
     s_psi        :      2.60s CPU      2.81s WALL (    4332 calls)
     g_psi        :      0.35s CPU      0.36s WALL (    2892 calls)
     cdiaghg      :      2.59s CPU      3.64s WALL (    4172 calls)

     Called by h_psi:
     add_vuspsi   :      2.87s CPU      3.21s WALL (    4332 calls)

     General routines
     calbec       :     11.88s CPU     16.83s WALL (    6412 calls)
     fft          :      9.09s CPU     14.96s WALL (    1051 calls)
     ffts         :      0.24s CPU      0.44s WALL (     132 calls)
     fftw         :    141.68s CPU    214.99s WALL (  215772 calls)
     interpolate  :      1.50s CPU      2.05s WALL (     132 calls)
     davcio       :      0.01s CPU      0.01s WALL (      64 calls)

     Parallel routines
     fft_scatter  :     80.23s CPU    148.69s WALL (  216955 calls)

     PAW routines
     PAW_pot      :      3.14s CPU      4.02s WALL (      48 calls)
     PAW_symme    :      0.01s CPU      0.01s WALL (      91 calls)

     PWSCF        :  6m 1.60s CPU     7m54.40s WALL


   This run was terminated on:  13:56: 2  12Feb2016            

=------------------------------------------------------------------------------=
   JOB DONE.
=------------------------------------------------------------------------------=
