
     Program PWSCF v.4.3.2      starts on 23May2013 at 18:29:45 

     This program is part of the open-source Quantum ESPRESSO suite
     for quantum simulation of materials; please cite
         "P. Giannozzi et al., J. Phys.:Condens. Matter 21 395502 (2009);
          URL http://www.quantum-espresso.org", 
     in publications or presentations arising from this work. More details at
     http://www.quantum-espresso.org/wiki/index.php/Citing_Quantum-ESPRESSO

     Parallel version (MPI), running on     4 processors
     R & G space division:  proc/pool =    4

     Current dimensions of program PWSCF are:
     Max number of different atomic species (ntypx) = 10
     Max number of k-points (npk) =  40000
     Max angular momentum in pseudopotentials (lmaxx) =  3
     Waiting for input...
     Reading input from stdin
Warning: card  &CELL ignored
Warning: card  / ignored
               file o.UPF: wavefunction(s)  2P renormalized
               file v.UPF: wavefunction(s)  3P 3D renormalized
               file al.UPF: wavefunction(s)  3S renormalized

     Subspace diagonalization in iterative solution of the eigenvalue problem:
     a serial algorithm will be used

 
     Parallelization info
     --------------------
     sticks:   dense  smooth     PW     G-vecs:    dense   smooth      PW
     Min        2284     916    247               160073    40512    5699
     Max        2286     917    248               160074    40535    5702
     Sum        9139    3665    991               640295   162099   22801
 

     Title: 
     crystal                                                                    


     bravais-lattice index     =            0
     lattice parameter (alat)  =       1.0000  a.u.
     unit-cell volume          =    2580.0762 (a.u.)^3
     number of atoms/cell      =           29
     number of atomic types    =            3
     number of electrons       =       227.00
     number of Kohn-Sham states=          137
     kinetic-energy cutoff     =      60.0000  Ry
     charge density cutoff     =     600.0000  Ry
     convergence threshold     =      1.0E-06
     mixing beta               =       0.7000
     number of iterations used =            8  plain     mixing
     Exchange-correlation      =  SLA  PW   PBX  PBC ( 1 4 3 4 0)
     EXX-fraction              =        0.00
     nstep                     =           50


     celldm(1)=   1.000000  celldm(2)=   0.000000  celldm(3)=   0.000000
     celldm(4)=   0.000000  celldm(5)=   0.000000  celldm(6)=   0.000000

     crystal axes: (cart. coord. in units of alat)
               a(1) = (  21.897630   0.000000   0.000000 )  
               a(2) = (   0.000000   8.740345   0.000000 )  
               a(3) = (   0.000000   0.000000  13.480526 )  

     reciprocal axes: (cart. coord. in units 2 pi/alat)
               b(1) = (  0.045667  0.000000  0.000000 )  
               b(2) = (  0.000000  0.114412  0.000000 )  
               b(3) = (  0.000000  0.000000  0.074181 )  


     PseudoPot. # 1 for  O read from file:
     ./o.UPF
     MD5 check sum: 41b4c06c3d5f255fcb8c86fb23a9ad16
     Pseudo is Projector augmented-wave + core cor, Zval =  6.0
     Generated using "atomic" code by A. Dal Corso  (Quantum ESPRESSO distribution)
     Shape of augmentation charge: BESSEL
     Using radial grid of 1095 points,  4 beta functions with: 
                l(1) =   0
                l(2) =   0
                l(3) =   1
                l(4) =   1
     Q(r) pseudized with 0 coefficients 


     PseudoPot. # 2 for  V read from file:
     ./v.UPF
     MD5 check sum: 82b33432f4c77c04e82c5e92406ad013
     Pseudo is Projector augmented-wave + core cor, Zval = 13.0
     Generated using "atomic" code by A. Dal Corso  (Quantum ESPRESSO distribution)
     Shape of augmentation charge: PSQ
     Using radial grid of 1181 points,  6 beta functions with: 
                l(1) =   0
                l(2) =   0
                l(3) =   1
                l(4) =   1
                l(5) =   2
                l(6) =   2
     Q(r) pseudized with 0 coefficients 


     PseudoPot. # 3 for Al read from file:
     ./al.UPF
     MD5 check sum: 02ea3c910bd38bff55b52f765a3e8745
     Pseudo is Projector augmented-wave + core cor, Zval =  3.0
     Generated using "atomic" code by A. Dal Corso  (Quantum ESPRESSO distribution)
     Shape of augmentation charge: PSQ
     Using radial grid of 1135 points,  4 beta functions with: 
                l(1) =   0
                l(2) =   0
                l(3) =   1
                l(4) =   1
     Q(r) pseudized with 0 coefficients 


     atomic species   valence    mass     pseudopotential
        o              6.00    15.99940      O( 1.00)
        v             13.00    50.94150      V( 1.00)
        al             3.00    26.98164     Al( 1.00)

     Starting magnetic structure 
     atomic species   magnetization
        o            0.000
        v            0.000
        al           1.000

     No symmetry found

   Cartesian axes

     site n.     atom                  positions (alat units)
         1           v   tau(   1) = (   3.2423169   0.9713831   6.4041474  )
         2           v   tau(   2) = (  18.6553126   0.9713831   6.4041474  )
         3           v   tau(   3) = (  14.1911317   7.7689621   9.7742789  )
         4           v   tau(   4) = (   7.7064979   7.7689621   9.7742789  )
         5           o   tau(   5) = (   0.0000000   0.0063699  13.1426918  )
         6           o   tau(   6) = (  10.9488148   8.7339753   9.7725603  )
         7           o   tau(   7) = (   3.1491788   3.9762946  13.1422799  )
         8           o   tau(   8) = (  18.7484507   3.9762946  13.1422799  )
         9           o   tau(   9) = (  14.0979936   4.7640506   9.7721484  )
        10           o   tau(  10) = (   7.7996359   4.7640506   9.7721484  )
        11           o   tau(  11) = (   3.9746020   0.0563391   9.7741276  )
        12           o   tau(  12) = (  17.9230275   0.0563391   9.7741276  )
        13           o   tau(  13) = (  14.9234167   8.6840061  13.1442591  )
        14           o   tau(  14) = (   6.9742128   8.6840061  13.1442591  )
        15           v   tau(  15) = (   3.2423169   0.9713831  -0.3361157  )
        16           v   tau(  16) = (  18.6553126   0.9713831  -0.3361157  )
        17           v   tau(  17) = (  14.1911317   7.7689621   3.0340159  )
        18           v   tau(  18) = (   7.7064979   7.7689621   3.0340159  )
        19           o   tau(  19) = (   0.0000000   0.0063699   6.4024288  )
        20           o   tau(  20) = (  10.9488148   8.7339753   3.0322972  )
        21           o   tau(  21) = (   3.1491788   3.9762946   6.4020168  )
        22           o   tau(  22) = (  18.7484507   3.9762946   6.4020168  )
        23           o   tau(  23) = (  14.0979936   4.7640506   3.0318853  )
        24           o   tau(  24) = (   7.7996359   4.7640506   3.0318853  )
        25           o   tau(  25) = (   3.9746020   0.0563391   3.0338645  )
        26           o   tau(  26) = (  17.9230275   0.0563391   3.0338645  )
        27           o   tau(  27) = (  14.9234167   8.6840061   6.4039961  )
        28           o   tau(  28) = (   6.9742128   8.6840061   6.4039961  )
        29           al  tau(  29) = (  10.7298385   2.6221036   6.0662368  )

     number of k points=    32  Marzari-Vanderbilt smearing, width (Ry)=  0.0100
                       cart. coord. in units 2pi/alat
        k(    1) = (   0.0057084   0.0143015   0.0185453), wk =   0.0625000
        k(    2) = (   0.0057084   0.0429045   0.0185453), wk =   0.0625000
        k(    3) = (   0.0171251   0.0143015   0.0185453), wk =   0.0625000
        k(    4) = (   0.0171251   0.0429045   0.0185453), wk =   0.0625000
        k(    5) = (  -0.0057084  -0.0143015   0.0185453), wk =   0.0625000
        k(    6) = (  -0.0057084   0.0143015  -0.0185453), wk =   0.0625000
        k(    7) = (   0.0057084  -0.0143015  -0.0185453), wk =   0.0625000
        k(    8) = (  -0.0057084  -0.0429045   0.0185453), wk =   0.0625000
        k(    9) = (  -0.0057084   0.0429045  -0.0185453), wk =   0.0625000
        k(   10) = (   0.0057084  -0.0429045  -0.0185453), wk =   0.0625000
        k(   11) = (  -0.0171251  -0.0143015   0.0185453), wk =   0.0625000
        k(   12) = (  -0.0171251   0.0143015  -0.0185453), wk =   0.0625000
        k(   13) = (   0.0171251  -0.0143015  -0.0185453), wk =   0.0625000
        k(   14) = (  -0.0171251  -0.0429045   0.0185453), wk =   0.0625000
        k(   15) = (  -0.0171251   0.0429045  -0.0185453), wk =   0.0625000
        k(   16) = (   0.0171251  -0.0429045  -0.0185453), wk =   0.0625000
        k(   17) = (   0.0057084   0.0143015   0.0185453), wk =   0.0625000
        k(   18) = (   0.0057084   0.0429045   0.0185453), wk =   0.0625000
        k(   19) = (   0.0171251   0.0143015   0.0185453), wk =   0.0625000
        k(   20) = (   0.0171251   0.0429045   0.0185453), wk =   0.0625000
        k(   21) = (  -0.0057084  -0.0143015   0.0185453), wk =   0.0625000
        k(   22) = (  -0.0057084   0.0143015  -0.0185453), wk =   0.0625000
        k(   23) = (   0.0057084  -0.0143015  -0.0185453), wk =   0.0625000
        k(   24) = (  -0.0057084  -0.0429045   0.0185453), wk =   0.0625000
        k(   25) = (  -0.0057084   0.0429045  -0.0185453), wk =   0.0625000
        k(   26) = (   0.0057084  -0.0429045  -0.0185453), wk =   0.0625000
        k(   27) = (  -0.0171251  -0.0143015   0.0185453), wk =   0.0625000
        k(   28) = (  -0.0171251   0.0143015  -0.0185453), wk =   0.0625000
        k(   29) = (   0.0171251  -0.0143015  -0.0185453), wk =   0.0625000
        k(   30) = (  -0.0171251  -0.0429045   0.0185453), wk =   0.0625000
        k(   31) = (  -0.0171251   0.0429045  -0.0185453), wk =   0.0625000
        k(   32) = (   0.0171251  -0.0429045  -0.0185453), wk =   0.0625000

     Dense  grid:   640295 G-vectors     FFT dimensions: ( 180,  72, 108)

     Smooth grid:   162099 G-vectors     FFT dimensions: ( 108,  45,  72)

     Largest allocated arrays     est. size (Mb)     dimensions
        Kohn-Sham Wavefunctions        10.63 Mb     (   5086,  137)
        NL pseudopotentials            24.21 Mb     (   5086,  312)
        Each V/rho on FFT grid         10.68 Mb     ( 349920,   2)
        Each G-vector array             1.22 Mb     ( 160074)
        G-vector shells                 0.49 Mb     (  64229)
     Largest temporary arrays     est. size (Mb)     dimensions
        Auxiliary wavefunctions        42.53 Mb     (   5086,  548)
        Each subspace H/S matrix        4.58 Mb     ( 548, 548)
        Each <psi_i|beta_j> matrix      0.65 Mb     (    312,  137)
        Arrays for rho mixing          42.71 Mb     ( 349920,   8)

     Check: negative/imaginary core charge=   -0.000005    0.000000

     Initial potential from superposition of free atoms

     starting charge  226.99041, renormalised to  227.00000
     Starting wfc are  164 atomic wfcs
     Checking if some PAW data can be deallocated... 

     total cpu time spent up to now is      157.0 secs

     per-process dynamical memory:   160.5 Mb

     Self-consistent Calculation

     iteration #  1     ecut=    60.00 Ry     beta=0.70
     Davidson diagonalization with overlap
     ethr =  1.00E-02,  avg # of iterations =  2.0

     total cpu time spent up to now is      507.6 secs

     total energy              =   -2577.06699183 Ry
     Harris-Foulkes estimate   =   -2589.62059119 Ry
     estimated scf accuracy    <      15.65908378 Ry

     total magnetization       =     1.17 Bohr mag/cell
     absolute magnetization    =     1.21 Bohr mag/cell

     iteration #  2     ecut=    60.00 Ry     beta=0.70
     Davidson diagonalization with overlap
     ethr =  6.90E-03,  avg # of iterations =  4.0

     total cpu time spent up to now is     1101.3 secs

     total energy              =   -2555.10187115 Ry
     Harris-Foulkes estimate   =   -2621.89596415 Ry
     estimated scf accuracy    <     317.59326719 Ry

     total magnetization       =     0.37 Bohr mag/cell
     absolute magnetization    =     0.70 Bohr mag/cell

     iteration #  3     ecut=    60.00 Ry     beta=0.70
     Davidson diagonalization with overlap
     ethr =  6.90E-03,  avg # of iterations =  4.0

     total cpu time spent up to now is     1711.7 secs

     total energy              =   -2584.49068133 Ry
     Harris-Foulkes estimate   =   -2589.12651795 Ry
     estimated scf accuracy    <      17.11469849 Ry

     total magnetization       =     0.07 Bohr mag/cell
     absolute magnetization    =     0.62 Bohr mag/cell

     iteration #  4     ecut=    60.00 Ry     beta=0.70
     Davidson diagonalization with overlap
     ethr =  6.90E-03,  avg # of iterations =  6.0

     total cpu time spent up to now is     2111.0 secs

     total energy              =   -2586.54575135 Ry
     Harris-Foulkes estimate   =   -2587.86531820 Ry
     estimated scf accuracy    <       5.23900495 Ry

     total magnetization       =     0.38 Bohr mag/cell
     absolute magnetization    =     0.63 Bohr mag/cell

     iteration #  5     ecut=    60.00 Ry     beta=0.70
     Davidson diagonalization with overlap
     ethr =  2.31E-03,  avg # of iterations =  6.5

     total cpu time spent up to now is     2477.3 secs

     total energy              =   -2586.80493359 Ry
     Harris-Foulkes estimate   =   -2587.03188051 Ry
     estimated scf accuracy    <       1.99132890 Ry

     total magnetization       =     0.39 Bohr mag/cell
     absolute magnetization    =     0.68 Bohr mag/cell

     iteration #  6     ecut=    60.00 Ry     beta=0.70
     Davidson diagonalization with overlap
     ethr =  8.77E-04,  avg # of iterations =  7.4

     total cpu time spent up to now is     2853.5 secs

     total energy              =   -2586.82088599 Ry
     Harris-Foulkes estimate   =   -2586.98920238 Ry
     estimated scf accuracy    <       1.40415718 Ry

     total magnetization       =     0.61 Bohr mag/cell
     absolute magnetization    =     0.72 Bohr mag/cell

     iteration #  7     ecut=    60.00 Ry     beta=0.70
     Davidson diagonalization with overlap
     ethr =  6.19E-04,  avg # of iterations =  3.9

     total cpu time spent up to now is     3190.4 secs

     total energy              =   -2586.81825465 Ry
     Harris-Foulkes estimate   =   -2586.89329671 Ry
     estimated scf accuracy    <       0.64815457 Ry

     total magnetization       =     0.54 Bohr mag/cell
     absolute magnetization    =     0.73 Bohr mag/cell

     iteration #  8     ecut=    60.00 Ry     beta=0.70
     Davidson diagonalization with overlap
     ethr =  2.86E-04,  avg # of iterations =  6.5

     total cpu time spent up to now is     3570.3 secs

     total energy              =   -2586.78802945 Ry
     Harris-Foulkes estimate   =   -2586.89455442 Ry
     estimated scf accuracy    <       0.68919653 Ry

     total magnetization       =     1.10 Bohr mag/cell
     absolute magnetization    =     1.15 Bohr mag/cell

     iteration #  9     ecut=    60.00 Ry     beta=0.70
     Davidson diagonalization with overlap
     ethr =  2.86E-04,  avg # of iterations =  1.0

     total cpu time spent up to now is     3893.2 secs

     total energy              =   -2586.81191626 Ry
     Harris-Foulkes estimate   =   -2586.84190319 Ry
     estimated scf accuracy    <       0.23188740 Ry

     total magnetization       =     1.16 Bohr mag/cell
     absolute magnetization    =     1.37 Bohr mag/cell

     iteration # 10     ecut=    60.00 Ry     beta=0.70
     Davidson diagonalization with overlap
     ethr =  1.02E-04,  avg # of iterations =  4.1

     total cpu time spent up to now is     4241.9 secs

     total energy              =   -2586.82294139 Ry
     Harris-Foulkes estimate   =   -2586.84833299 Ry
     estimated scf accuracy    <       0.21033757 Ry

     total magnetization       =     1.26 Bohr mag/cell
     absolute magnetization    =     1.43 Bohr mag/cell

     iteration # 11     ecut=    60.00 Ry     beta=0.70
     Davidson diagonalization with overlap
     ethr =  9.27E-05,  avg # of iterations =  1.5

     total cpu time spent up to now is     4566.9 secs

     total energy              =   -2586.83184127 Ry
     Harris-Foulkes estimate   =   -2586.84247438 Ry
     estimated scf accuracy    <       0.07338360 Ry

     total magnetization       =     1.20 Bohr mag/cell
     absolute magnetization    =     1.32 Bohr mag/cell

     iteration # 12     ecut=    60.00 Ry     beta=0.70
     Davidson diagonalization with overlap
     ethr =  3.23E-05,  avg # of iterations =  5.4

     total cpu time spent up to now is     4934.9 secs

     total energy              =   -2586.83243493 Ry
     Harris-Foulkes estimate   =   -2586.84446440 Ry
     estimated scf accuracy    <       0.06948287 Ry

     total magnetization       =     1.21 Bohr mag/cell
     absolute magnetization    =     1.42 Bohr mag/cell

     iteration # 13     ecut=    60.00 Ry     beta=0.70
     Davidson diagonalization with overlap
     ethr =  3.06E-05,  avg # of iterations =  4.1

     total cpu time spent up to now is     5289.0 secs

     total energy              =   -2586.82794631 Ry
     Harris-Foulkes estimate   =   -2586.84946377 Ry
     estimated scf accuracy    <       0.16753893 Ry

     total magnetization       =     1.51 Bohr mag/cell
     absolute magnetization    =     1.63 Bohr mag/cell

     iteration # 14     ecut=    60.00 Ry     beta=0.70
     Davidson diagonalization with overlap
     ethr =  3.06E-05,  avg # of iterations =  2.6

     total cpu time spent up to now is     5620.4 secs

     total energy              =   -2586.83867563 Ry
     Harris-Foulkes estimate   =   -2586.84033769 Ry
     estimated scf accuracy    <       0.01108806 Ry

     total magnetization       =     1.34 Bohr mag/cell
     absolute magnetization    =     1.62 Bohr mag/cell

     iteration # 15     ecut=    60.00 Ry     beta=0.70
     Davidson diagonalization with overlap
     ethr =  4.88E-06,  avg # of iterations =  5.7

     total cpu time spent up to now is     6029.7 secs

     total energy              =   -2586.84020828 Ry
     Harris-Foulkes estimate   =   -2586.84096454 Ry
     estimated scf accuracy    <       0.00951129 Ry

     total magnetization       =     1.33 Bohr mag/cell
     absolute magnetization    =     1.58 Bohr mag/cell

     iteration # 16     ecut=    60.00 Ry     beta=0.70
     Davidson diagonalization with overlap
     ethr =  4.19E-06,  avg # of iterations =  3.0

     total cpu time spent up to now is     6361.4 secs

     total energy              =   -2586.84046278 Ry
     Harris-Foulkes estimate   =   -2586.84128642 Ry
     estimated scf accuracy    <       0.00851633 Ry

     total magnetization       =     1.43 Bohr mag/cell
     absolute magnetization    =     1.70 Bohr mag/cell

     iteration # 17     ecut=    60.00 Ry     beta=0.70
     Davidson diagonalization with overlap
     ethr =  3.75E-06,  avg # of iterations =  1.5

     total cpu time spent up to now is     6686.5 secs

     total energy              =   -2586.84123201 Ry
     Harris-Foulkes estimate   =   -2586.84132380 Ry
     estimated scf accuracy    <       0.00314952 Ry

     total magnetization       =     1.43 Bohr mag/cell
     absolute magnetization    =     1.76 Bohr mag/cell

     iteration # 18     ecut=    60.00 Ry     beta=0.70
     Davidson diagonalization with overlap
     ethr =  1.39E-06,  avg # of iterations =  3.6

     total cpu time spent up to now is     7025.3 secs

     total energy              =   -2586.84154761 Ry
     Harris-Foulkes estimate   =   -2586.84190246 Ry
     estimated scf accuracy    <       0.00332608 Ry

     total magnetization       =     1.50 Bohr mag/cell
     absolute magnetization    =     1.86 Bohr mag/cell

     iteration # 19     ecut=    60.00 Ry     beta=0.70
     Davidson diagonalization with overlap
     ethr =  1.39E-06,  avg # of iterations =  3.3

     total cpu time spent up to now is     7369.0 secs

     total energy              =   -2586.84153959 Ry
     Harris-Foulkes estimate   =   -2586.84232308 Ry
     estimated scf accuracy    <       0.00455545 Ry

     total magnetization       =     1.55 Bohr mag/cell
     absolute magnetization    =     1.92 Bohr mag/cell

     iteration # 20     ecut=    60.00 Ry     beta=0.70
     Davidson diagonalization with overlap
     ethr =  1.39E-06,  avg # of iterations =  4.8

     total cpu time spent up to now is     7789.0 secs

     total energy              =   -2586.84094176 Ry
     Harris-Foulkes estimate   =   -2586.84297616 Ry
     estimated scf accuracy    <       0.01240463 Ry

     total magnetization       =     1.47 Bohr mag/cell
     absolute magnetization    =     1.91 Bohr mag/cell

     iteration # 21     ecut=    60.00 Ry     beta=0.70
     Davidson diagonalization with overlap
     ethr =  1.39E-06,  avg # of iterations =  4.2

     total cpu time spent up to now is     8181.4 secs

     total energy              =   -2586.84151889 Ry
     Harris-Foulkes estimate   =   -2586.84248822 Ry
     estimated scf accuracy    <       0.00616564 Ry

     total magnetization       =     1.51 Bohr mag/cell
     absolute magnetization    =     1.96 Bohr mag/cell

     iteration # 22     ecut=    60.00 Ry     beta=0.70
     Davidson diagonalization with overlap
     ethr =  1.39E-06,  avg # of iterations =  3.2

     total cpu time spent up to now is     8519.7 secs

     total energy              =   -2586.84166209 Ry
     Harris-Foulkes estimate   =   -2586.84226085 Ry
     estimated scf accuracy    <       0.00263346 Ry

     total magnetization       =     1.54 Bohr mag/cell
     absolute magnetization    =     1.98 Bohr mag/cell

     iteration # 23     ecut=    60.00 Ry     beta=0.70
     Davidson diagonalization with overlap
     ethr =  1.16E-06,  avg # of iterations =  4.4

     total cpu time spent up to now is     8895.8 secs

     total energy              =   -2586.84130147 Ry
     Harris-Foulkes estimate   =   -2586.84272499 Ry
     estimated scf accuracy    <       0.01102974 Ry

     total magnetization       =     1.46 Bohr mag/cell
     absolute magnetization    =     1.98 Bohr mag/cell

     iteration # 24     ecut=    60.00 Ry     beta=0.70
     Davidson diagonalization with overlap
     ethr =  1.16E-06,  avg # of iterations =  3.0

     total cpu time spent up to now is     9233.3 secs

     total energy              =   -2586.84203284 Ry
     Harris-Foulkes estimate   =   -2586.84209963 Ry
     estimated scf accuracy    <       0.00089297 Ry

     total magnetization       =     1.52 Bohr mag/cell
     absolute magnetization    =     1.96 Bohr mag/cell

     iteration # 25     ecut=    60.00 Ry     beta=0.70
     Davidson diagonalization with overlap
     ethr =  3.93E-07,  avg # of iterations =  2.4

     total cpu time spent up to now is     9564.9 secs

     total energy              =   -2586.84204146 Ry
     Harris-Foulkes estimate   =   -2586.84217260 Ry
     estimated scf accuracy    <       0.00059214 Ry

     total magnetization       =     1.58 Bohr mag/cell
     absolute magnetization    =     2.07 Bohr mag/cell

     iteration # 26     ecut=    60.00 Ry     beta=0.70
     Davidson diagonalization with overlap
     ethr =  2.61E-07,  avg # of iterations =  3.3

     total cpu time spent up to now is     9909.1 secs

     total energy              =   -2586.84200548 Ry
     Harris-Foulkes estimate   =   -2586.84222007 Ry
     estimated scf accuracy    <       0.00141994 Ry

     total magnetization       =     1.52 Bohr mag/cell
     absolute magnetization    =     2.01 Bohr mag/cell

     iteration # 27     ecut=    60.00 Ry     beta=0.70
     Davidson diagonalization with overlap
     ethr =  2.61E-07,  avg # of iterations =  2.0

     total cpu time spent up to now is    10238.6 secs

     total energy              =   -2586.84209222 Ry
     Harris-Foulkes estimate   =   -2586.84213754 Ry
     estimated scf accuracy    <       0.00021555 Ry

     total magnetization       =     1.54 Bohr mag/cell
     absolute magnetization    =     2.03 Bohr mag/cell

     iteration # 28     ecut=    60.00 Ry     beta=0.70
     Davidson diagonalization with overlap
     ethr =  9.50E-08,  avg # of iterations =  3.4

     total cpu time spent up to now is    10607.5 secs

     total energy              =   -2586.84208851 Ry
     Harris-Foulkes estimate   =   -2586.84215968 Ry
     estimated scf accuracy    <       0.00044927 Ry

     total magnetization       =     1.52 Bohr mag/cell
     absolute magnetization    =     2.02 Bohr mag/cell

     iteration # 29     ecut=    60.00 Ry     beta=0.70
     Davidson diagonalization with overlap
     ethr =  9.50E-08,  avg # of iterations =  2.9

     total cpu time spent up to now is    10946.7 secs

     total energy              =   -2586.84213450 Ry
     Harris-Foulkes estimate   =   -2586.84213730 Ry
     estimated scf accuracy    <       0.00008144 Ry

     total magnetization       =     1.54 Bohr mag/cell
     absolute magnetization    =     2.04 Bohr mag/cell

     iteration # 30     ecut=    60.00 Ry     beta=0.70
     Davidson diagonalization with overlap
     ethr =  3.59E-08,  avg # of iterations =  2.2

     total cpu time spent up to now is    11287.9 secs

     total energy              =   -2586.84213348 Ry
     Harris-Foulkes estimate   =   -2586.84214884 Ry
     estimated scf accuracy    <       0.00009759 Ry

     total magnetization       =     1.54 Bohr mag/cell
     absolute magnetization    =     2.06 Bohr mag/cell

     iteration # 31     ecut=    60.00 Ry     beta=0.70
     Davidson diagonalization with overlap
     ethr =  3.59E-08,  avg # of iterations =  2.1

     total cpu time spent up to now is    11616.0 secs

     total energy              =   -2586.84213239 Ry
     Harris-Foulkes estimate   =   -2586.84214678 Ry
     estimated scf accuracy    <       0.00008372 Ry

     total magnetization       =     1.54 Bohr mag/cell
     absolute magnetization    =     2.06 Bohr mag/cell

     iteration # 32     ecut=    60.00 Ry     beta=0.70
     Davidson diagonalization with overlap
     ethr =  3.59E-08,  avg # of iterations =  3.0

     total cpu time spent up to now is    11974.1 secs

     total energy              =   -2586.84212537 Ry
     Harris-Foulkes estimate   =   -2586.84216221 Ry
     estimated scf accuracy    <       0.00024706 Ry

     total magnetization       =     1.54 Bohr mag/cell
     absolute magnetization    =     2.06 Bohr mag/cell

     iteration # 33     ecut=    60.00 Ry     beta=0.70
     Davidson diagonalization with overlap
     ethr =  3.59E-08,  avg # of iterations =  3.0

     total cpu time spent up to now is    12325.0 secs

     total energy              =   -2586.84213928 Ry
     Harris-Foulkes estimate   =   -2586.84214820 Ry
     estimated scf accuracy    <       0.00003977 Ry

     total magnetization       =     1.54 Bohr mag/cell
     absolute magnetization    =     2.08 Bohr mag/cell

     iteration # 34     ecut=    60.00 Ry     beta=0.70
     Davidson diagonalization with overlap
     ethr =  1.75E-08,  avg # of iterations =  3.6

     total cpu time spent up to now is    12687.6 secs

     total energy              =   -2586.84213241 Ry
     Harris-Foulkes estimate   =   -2586.84215580 Ry
     estimated scf accuracy    <       0.00014679 Ry

     total magnetization       =     1.53 Bohr mag/cell
     absolute magnetization    =     2.08 Bohr mag/cell

     iteration # 35     ecut=    60.00 Ry     beta=0.70
     Davidson diagonalization with overlap
     ethr =  1.75E-08,  avg # of iterations =  3.3

     total cpu time spent up to now is    13062.6 secs

     total energy              =   -2586.84213411 Ry
     Harris-Foulkes estimate   =   -2586.84215531 Ry
     estimated scf accuracy    <       0.00014057 Ry

     total magnetization       =     1.52 Bohr mag/cell
     absolute magnetization    =     2.05 Bohr mag/cell

     iteration # 36     ecut=    60.00 Ry     beta=0.70
     Davidson diagonalization with overlap
     ethr =  1.75E-08,  avg # of iterations =  3.0

     total cpu time spent up to now is    13411.1 secs

     total energy              =   -2586.84214302 Ry
     Harris-Foulkes estimate   =   -2586.84214978 Ry
     estimated scf accuracy    <       0.00005560 Ry

     total magnetization       =     1.54 Bohr mag/cell
     absolute magnetization    =     2.08 Bohr mag/cell

     iteration # 37     ecut=    60.00 Ry     beta=0.70
     Davidson diagonalization with overlap
     ethr =  1.75E-08,  avg # of iterations =  1.9

     total cpu time spent up to now is    13737.5 secs

     total energy              =   -2586.84214609 Ry
     Harris-Foulkes estimate   =   -2586.84214702 Ry
     estimated scf accuracy    <       0.00000921 Ry

     total magnetization       =     1.54 Bohr mag/cell
     absolute magnetization    =     2.09 Bohr mag/cell

     iteration # 38     ecut=    60.00 Ry     beta=0.70
     Davidson diagonalization with overlap
     ethr =  4.06E-09,  avg # of iterations =  3.1

     total cpu time spent up to now is    14100.0 secs

     total energy              =   -2586.84214532 Ry
     Harris-Foulkes estimate   =   -2586.84214869 Ry
     estimated scf accuracy    <       0.00001919 Ry

     total magnetization       =     1.54 Bohr mag/cell
     absolute magnetization    =     2.09 Bohr mag/cell

     iteration # 39     ecut=    60.00 Ry     beta=0.70
     Davidson diagonalization with overlap
     ethr =  4.06E-09,  avg # of iterations =  3.0

     total cpu time spent up to now is    14454.3 secs

     total energy              =   -2586.84214659 Ry
     Harris-Foulkes estimate   =   -2586.84214823 Ry
     estimated scf accuracy    <       0.00001224 Ry

     total magnetization       =     1.53 Bohr mag/cell
     absolute magnetization    =     2.09 Bohr mag/cell

     iteration # 40     ecut=    60.00 Ry     beta=0.70
     Davidson diagonalization with overlap
     ethr =  4.06E-09,  avg # of iterations =  2.0

     total cpu time spent up to now is    14783.7 secs

     total energy              =   -2586.84214714 Ry
     Harris-Foulkes estimate   =   -2586.84214788 Ry
     estimated scf accuracy    <       0.00000648 Ry

     total magnetization       =     1.54 Bohr mag/cell
     absolute magnetization    =     2.09 Bohr mag/cell

     iteration # 41     ecut=    60.00 Ry     beta=0.70
     Davidson diagonalization with overlap
     ethr =  2.85E-09,  avg # of iterations =  1.9

     total cpu time spent up to now is    15110.2 secs

     total energy              =   -2586.84214721 Ry
     Harris-Foulkes estimate   =   -2586.84214790 Ry
     estimated scf accuracy    <       0.00000740 Ry

     total magnetization       =     1.53 Bohr mag/cell
     absolute magnetization    =     2.09 Bohr mag/cell

     iteration # 42     ecut=    60.00 Ry     beta=0.70
     Davidson diagonalization with overlap
     ethr =  2.85E-09,  avg # of iterations =  1.0

     total cpu time spent up to now is    15433.0 secs

     total energy              =   -2586.84214769 Ry
     Harris-Foulkes estimate   =   -2586.84214781 Ry
     estimated scf accuracy    <       0.00000195 Ry

     total magnetization       =     1.53 Bohr mag/cell
     absolute magnetization    =     2.09 Bohr mag/cell

     iteration # 43     ecut=    60.00 Ry     beta=0.70
     Davidson diagonalization with overlap
     ethr =  8.60E-10,  avg # of iterations =  2.2

     total cpu time spent up to now is    15762.7 secs

     total energy              =   -2586.84214791 Ry
     Harris-Foulkes estimate   =   -2586.84214795 Ry
     estimated scf accuracy    <       0.00000230 Ry

     total magnetization       =     1.53 Bohr mag/cell
     absolute magnetization    =     2.10 Bohr mag/cell

     iteration # 44     ecut=    60.00 Ry     beta=0.70
     Davidson diagonalization with overlap
     ethr =  8.60E-10,  avg # of iterations =  1.7

     total cpu time spent up to now is    16089.5 secs

     total energy              =   -2586.84214804 Ry
     Harris-Foulkes estimate   =   -2586.84214819 Ry
     estimated scf accuracy    <       0.00000215 Ry

     total magnetization       =     1.53 Bohr mag/cell
     absolute magnetization    =     2.10 Bohr mag/cell

     iteration # 45     ecut=    60.00 Ry     beta=0.70
     Davidson diagonalization with overlap
     ethr =  8.60E-10,  avg # of iterations =  3.0

     total cpu time spent up to now is    16466.0 secs

     total energy              =   -2586.84214838 Ry
     Harris-Foulkes estimate   =   -2586.84214911 Ry
     estimated scf accuracy    <       0.00000446 Ry

     total magnetization       =     1.53 Bohr mag/cell
     absolute magnetization    =     2.10 Bohr mag/cell

     iteration # 46     ecut=    60.00 Ry     beta=0.70
     Davidson diagonalization with overlap
     ethr =  8.60E-10,  avg # of iterations =  3.0

     total cpu time spent up to now is    16832.9 secs

     total energy              =   -2586.84214796 Ry
     Harris-Foulkes estimate   =   -2586.84214910 Ry
     estimated scf accuracy    <       0.00000586 Ry

     total magnetization       =     1.52 Bohr mag/cell
     absolute magnetization    =     2.11 Bohr mag/cell

     iteration # 47     ecut=    60.00 Ry     beta=0.70
     Davidson diagonalization with overlap
     ethr =  8.60E-10,  avg # of iterations =  3.6

     total cpu time spent up to now is    17260.5 secs

     total energy              =   -2586.84214718 Ry
     Harris-Foulkes estimate   =   -2586.84214991 Ry
     estimated scf accuracy    <       0.00001932 Ry

     total magnetization       =     1.53 Bohr mag/cell
     absolute magnetization    =     2.10 Bohr mag/cell

     iteration # 48     ecut=    60.00 Ry     beta=0.70
     Davidson diagonalization with overlap
     ethr =  8.60E-10,  avg # of iterations =  3.0

     total cpu time spent up to now is    17666.6 secs

     total energy              =   -2586.84214881 Ry
     Harris-Foulkes estimate   =   -2586.84214871 Ry
     estimated scf accuracy    <       0.00000117 Ry

     total magnetization       =     1.53 Bohr mag/cell
     absolute magnetization    =     2.11 Bohr mag/cell

     iteration # 49     ecut=    60.00 Ry     beta=0.70
     Davidson diagonalization with overlap
     ethr =  5.16E-10,  avg # of iterations =  1.5

     total cpu time spent up to now is    17990.2 secs

     End of self-consistent calculation

 ------ SPIN UP ------------


          k = 0.0057 0.0143 0.0185 ( 20261 PWs)   bands (ev):

   -59.7817 -59.7383 -59.7162 -59.6801 -59.6410 -59.6000 -59.5624 -59.5405
   -33.9201 -33.8455 -33.8043 -33.7480 -33.7027 -33.6789 -33.6504 -33.6214
   -33.6182 -33.6108 -33.5840 -33.5780 -33.5604 -33.5504 -33.5452 -33.5123
   -33.5029 -33.4487 -33.4444 -33.4285 -33.4128 -33.3847 -33.3744 -33.3593
   -13.6632 -13.3506 -13.2085 -12.8251 -12.6649 -12.5588 -12.2500 -12.1685
   -12.1246 -12.0188 -11.9908 -11.9488 -11.9176 -11.8911 -11.8339 -11.7173
   -11.4951 -11.4404 -11.3846 -11.3582  -1.3174  -0.7361  -0.6418  -0.5328
    -0.4115  -0.3433  -0.1475   0.0017   0.0289   0.1366   0.2558   0.3588
     0.4931   0.5362   0.6444   0.7491   0.8953   0.9258   1.0997   1.1769
     1.2200   1.2784   1.4001   1.4701   1.4974   1.5256   1.5919   1.6403
     1.6662   1.7266   1.8539   1.9434   1.9608   2.0663   2.1031   2.1985
     2.2161   2.2530   2.3173   2.3632   2.3901   2.4286   2.4902   2.5546
     2.6473   2.7166   2.8855   2.9577   2.9964   3.0736   3.0895   3.1777
     3.3199   3.3836   3.4863   3.5585   3.6163   3.6875   3.7347   3.8661
     5.8879   5.9894   6.2925   6.4007   6.6639   6.9682   7.2050   7.3507
     7.3734   7.5632   7.6128   7.6751   7.7429   7.7858   7.8135   7.9273
     8.0956   8.1501   8.1710   8.2273   8.2796   8.3178   8.3942   8.4147
     8.5796

          k = 0.0057 0.0429 0.0185 ( 20257 PWs)   bands (ev):

   -59.7817 -59.7383 -59.7162 -59.6801 -59.6410 -59.6000 -59.5624 -59.5405
   -33.9216 -33.8469 -33.8056 -33.7493 -33.7037 -33.6792 -33.6515 -33.6218
   -33.6183 -33.6107 -33.5847 -33.5786 -33.5605 -33.5504 -33.5453 -33.5122
   -33.5028 -33.4487 -33.4444 -33.4285 -33.4128 -33.3846 -33.3744 -33.3593
   -13.6146 -13.3196 -13.1738 -12.7991 -12.6369 -12.5352 -12.2186 -12.1444
   -12.1171 -12.0082 -11.9788 -11.9348 -11.9080 -11.8726 -11.8235 -11.6985
   -11.4826 -11.4185 -11.3709 -11.3312  -1.4282  -0.7680  -0.6895  -0.5945
    -0.5252  -0.3893  -0.2166  -0.1718  -0.0862  -0.0282   0.0147   0.0726
     0.2719   0.3649   0.3867   0.4408   0.5662   0.6432   0.7103   0.8653
     1.0188   1.0641   1.0962   1.1539   1.2466   1.2994   1.3298   1.3691
     1.4840   1.5073   1.6688   1.7783   1.8282   1.9462   2.0223   2.1995
     2.3215   2.4100   2.4443   2.5376   2.6334   2.7293   2.7607   2.8436
     2.8922   2.9811   3.0333   3.0611   3.0839   3.1525   3.2717   3.4356
     3.5684   3.6288   3.6888   3.7387   3.8225   3.9152   4.0327   4.0601
     5.7619   5.9428   6.3068   6.4393   6.6657   6.9799   7.2031   7.3827
     7.5353   7.5964   7.6605   7.6902   7.8071   7.8604   7.8923   8.0186
     8.1015   8.1818   8.2287   8.2875   8.3240   8.3748   8.4099   8.4436
     8.6212

          k = 0.0171 0.0143 0.0185 ( 20254 PWs)   bands (ev):

   -59.7817 -59.7383 -59.7162 -59.6801 -59.6410 -59.6000 -59.5624 -59.5405
   -33.9201 -33.8455 -33.8043 -33.7480 -33.7024 -33.6789 -33.6503 -33.6213
   -33.6185 -33.6104 -33.5842 -33.5779 -33.5617 -33.5505 -33.5460 -33.5114
   -33.5016 -33.4485 -33.4453 -33.4277 -33.4129 -33.3846 -33.3749 -33.3594
   -13.6557 -13.3690 -13.2027 -12.8133 -12.6874 -12.5375 -12.2521 -12.1636
   -12.1246 -12.0291 -11.9859 -11.9499 -11.9238 -11.8880 -11.8338 -11.7170
   -11.4949 -11.4402 -11.3844 -11.3581  -1.3203  -0.7548  -0.6262  -0.5289
    -0.4017  -0.3353  -0.1457  -0.0148   0.0162   0.1380   0.2731   0.3398
     0.4235   0.5810   0.6904   0.7546   0.8587   0.9719   1.0212   1.1660
     1.2251   1.3474   1.3915   1.4563   1.5249   1.5451   1.6144   1.6504
     1.6745   1.7750   1.8421   1.9339   1.9728   2.0150   2.0916   2.1893
     2.2309   2.2401   2.2959   2.3554   2.3949   2.4252   2.4557   2.5830
     2.6254   2.7474   2.8158   2.9840   2.9896   3.0696   3.1087   3.1797
     3.2922   3.4066   3.4522   3.5646   3.6248   3.6690   3.7559   3.8905
     5.8972   5.9789   6.3329   6.3919   6.6826   6.9672   7.2023   7.3334
     7.4076   7.5899   7.6248   7.6739   7.7218   7.7705   7.8169   7.9100
     7.9651   8.1515   8.1699   8.2111   8.2386   8.3180   8.4189   8.4942
     8.5670

          k = 0.0171 0.0429 0.0185 ( 20251 PWs)   bands (ev):

   -59.7817 -59.7383 -59.7162 -59.6801 -59.6410 -59.6000 -59.5624 -59.5405
   -33.9216 -33.8469 -33.8056 -33.7493 -33.7034 -33.6792 -33.6514 -33.6217
   -33.6186 -33.6103 -33.5849 -33.5784 -33.5618 -33.5506 -33.5460 -33.5113
   -33.5016 -33.4484 -33.4453 -33.4277 -33.4129 -33.3846 -33.3749 -33.3593
   -13.6077 -13.3354 -13.1693 -12.7894 -12.6556 -12.5185 -12.2197 -12.1412
   -12.1160 -12.0150 -11.9765 -11.9353 -11.9116 -11.8701 -11.8247 -11.6981
   -11.4820 -11.4188 -11.3705 -11.3315  -1.4261  -0.7746  -0.6916  -0.5992
    -0.5317  -0.3814  -0.2116  -0.1593  -0.0863  -0.0626   0.0431   0.1020
     0.2362   0.3123   0.3845   0.4688   0.5289   0.6706   0.7915   0.8844
     0.9468   1.0027   1.0884   1.1851   1.2667   1.3110   1.3649   1.3968
     1.4750   1.5174   1.6566   1.7468   1.8887   1.9738   2.0936   2.2389
     2.2852   2.3381   2.4614   2.4995   2.5662   2.6548   2.7654   2.7759
     2.8471   2.9840   3.0502   3.0717   3.1377   3.2501   3.2939   3.3895
     3.5296   3.6582   3.6906   3.7299   3.8361   3.9166   4.0345   4.0744
     5.7559   5.9483   6.3411   6.4306   6.6688   6.9865   7.2137   7.3737
     7.5684   7.6067   7.6690   7.7290   7.8024   7.8619   7.9129   7.9381
     8.0085   8.1654   8.1859   8.2632   8.3104   8.3660   8.4141   8.5149
     8.6317

          k =-0.0057-0.0143 0.0185 ( 20261 PWs)   bands (ev):

   -59.7817 -59.7383 -59.7162 -59.6801 -59.6410 -59.6000 -59.5624 -59.5405
   -33.9201 -33.8455 -33.8043 -33.7480 -33.7027 -33.6789 -33.6504 -33.6215
   -33.6186 -33.6100 -33.5842 -33.5788 -33.5591 -33.5503 -33.5460 -33.5124
   -33.5028 -33.4487 -33.4444 -33.4286 -33.4128 -33.3847 -33.3745 -33.3593
   -13.6630 -13.3528 -13.2049 -12.8311 -12.6578 -12.5616 -12.2535 -12.1650
   -12.1245 -12.0167 -11.9914 -11.9488 -11.9183 -11.8910 -11.8346 -11.7180
   -11.4948 -11.4401 -11.3848 -11.3584  -1.3202  -0.7433  -0.6224  -0.5417
    -0.3986  -0.3376  -0.1457  -0.0074   0.0286   0.1450   0.2415   0.3551
     0.4257   0.5513   0.6645   0.7658   0.8726   0.9524   1.1027   1.2072
     1.2468   1.2744   1.3799   1.4205   1.5019   1.5226   1.5658   1.6312
     1.7136   1.7762   1.8229   1.9101   2.0101   2.0811   2.1360   2.1781
     2.2131   2.2469   2.2851   2.3447   2.3854   2.4166   2.5156   2.5425
     2.6643   2.7113   2.8650   2.9438   3.0067   3.0568   3.1225   3.1826
     3.3220   3.3832   3.4890   3.5546   3.6144   3.6886   3.7378   3.8647
     5.8897   5.9949   6.2955   6.4009   6.6646   7.0238   7.1192   7.3439
     7.3702   7.5540   7.6161   7.6959   7.7357   7.7900   7.8252   7.9267
     8.0959   8.1478   8.1841   8.2282   8.2569   8.3335   8.3899   8.4178
     8.5783

          k =-0.0057 0.0143-0.0185 ( 20261 PWs)   bands (ev):

   -59.7817 -59.7383 -59.7162 -59.6801 -59.6410 -59.6000 -59.5624 -59.5405
   -33.9201 -33.8455 -33.8043 -33.7480 -33.7027 -33.6789 -33.6504 -33.6214
   -33.6182 -33.6108 -33.5840 -33.5780 -33.5604 -33.5504 -33.5452 -33.5123
   -33.5029 -33.4487 -33.4444 -33.4285 -33.4128 -33.3847 -33.3744 -33.3593
   -13.6631 -13.3506 -13.2085 -12.8251 -12.6654 -12.5588 -12.2521 -12.1680
   -12.1216 -12.0182 -11.9907 -11.9496 -11.9182 -11.8908 -11.8341 -11.7182
   -11.4949 -11.4400 -11.3848 -11.3584  -1.3203  -0.7364  -0.6362  -0.5336
    -0.3968  -0.3422  -0.1462  -0.0030   0.0249   0.1374   0.2558   0.3571
     0.4138   0.5641   0.6655   0.7500   0.8817   0.9733   1.0742   1.1993
     1.2309   1.2962   1.3694   1.4513   1.4786   1.5161   1.5968   1.6320
     1.7076   1.7764   1.8207   1.9069   2.0011   2.0755   2.1229   2.1702
     2.2041   2.2625   2.3077   2.3453   2.3868   2.4279   2.5027   2.5632
     2.6502   2.7330   2.8281   2.9597   3.0066   3.0644   3.0834   3.2166
     3.3189   3.3797   3.4861   3.5502   3.6148   3.6926   3.7389   3.8656
     5.8890   5.9959   6.2951   6.4011   6.6655   7.0213   7.1182   7.3494
     7.3690   7.5667   7.6008   7.6938   7.7361   7.7965   7.8225   7.9219
     8.0986   8.1361   8.1863   8.2292   8.2789   8.3200   8.3881   8.4197
     8.5800

          k = 0.0057-0.0143-0.0185 ( 20261 PWs)   bands (ev):

   -59.7817 -59.7383 -59.7162 -59.6801 -59.6410 -59.6000 -59.5624 -59.5405
   -33.9201 -33.8455 -33.8043 -33.7480 -33.7027 -33.6789 -33.6504 -33.6215
   -33.6186 -33.6100 -33.5842 -33.5788 -33.5591 -33.5503 -33.5460 -33.5124
   -33.5028 -33.4487 -33.4444 -33.4286 -33.4128 -33.3847 -33.3745 -33.3593
   -13.6630 -13.3529 -13.2048 -12.8310 -12.6576 -12.5613 -12.2517 -12.1643
   -12.1291 -12.0156 -11.9926 -11.9481 -11.9173 -11.8921 -11.8336 -11.7174
   -11.4951 -11.4404 -11.3847 -11.3582  -1.3175  -0.7424  -0.6293  -0.5387
    -0.4112  -0.3435  -0.1471  -0.0033   0.0332   0.1488   0.2425   0.3591
     0.4690   0.5605   0.6450   0.7426   0.8986   0.9450   1.0918   1.1599
     1.2168   1.2905   1.4033   1.4571   1.4999   1.5371   1.5956   1.6292
     1.6718   1.7235   1.8701   1.9235   1.9587   2.0654   2.0985   2.1949
     2.2242   2.2754   2.2988   2.3532   2.3858   2.4383   2.5015   2.5636
     2.6455   2.7221   2.8648   2.9614   2.9965   3.0615   3.1045   3.1780
     3.3184   3.3797   3.4897   3.5537   3.6173   3.6902   3.7353   3.8668
     5.8873   5.9902   6.2920   6.4009   6.6658   6.9659   7.2024   7.3486
     7.3805   7.5667   7.6093   7.6727   7.7361   7.7914   7.8151   7.9211
     8.0989   8.1542   8.1881   8.2134   8.2685   8.3260   8.3905   8.4154
     8.5810

          k =-0.0057-0.0429 0.0185 ( 20257 PWs)   bands (ev):

   -59.7817 -59.7383 -59.7162 -59.6801 -59.6410 -59.6000 -59.5624 -59.5405
   -33.9216 -33.8469 -33.8056 -33.7493 -33.7037 -33.6792 -33.6515 -33.6219
   -33.6187 -33.6099 -33.5849 -33.5793 -33.5592 -33.5503 -33.5460 -33.5123
   -33.5027 -33.4486 -33.4444 -33.4286 -33.4127 -33.3846 -33.3744 -33.3593
   -13.6143 -13.3216 -13.1706 -12.8042 -12.6307 -12.5380 -12.2227 -12.1415
   -12.1147 -12.0071 -11.9794 -11.9341 -11.9095 -11.8721 -11.8241 -11.6993
   -11.4823 -11.4181 -11.3710 -11.3313  -1.4308  -0.7723  -0.6700  -0.5803
    -0.5394  -0.3860  -0.2221  -0.1789  -0.1022  -0.0366   0.0361   0.0710
     0.2663   0.3569   0.3936   0.4331   0.5698   0.6345   0.7238   0.8682
     1.0170   1.0646   1.1079   1.1937   1.2475   1.2636   1.3039   1.3750
     1.4699   1.5206   1.6776   1.7796   1.8294   1.9480   2.0173   2.2180
     2.3203   2.3871   2.4828   2.5227   2.6249   2.7202   2.7862   2.8320
     2.8804   2.9710   3.0303   3.0500   3.1009   3.1433   3.2685   3.4519
     3.5700   3.6299   3.6886   3.7409   3.8196   3.9132   4.0374   4.0571
     5.7673   5.9441   6.3101   6.4396   6.6658   7.0307   7.1242   7.3834
     7.5336   7.5966   7.6639   7.7002   7.7858   7.8709   7.9002   8.0241
     8.1039   8.1884   8.2210   8.2843   8.3253   8.3824   8.4020   8.4463
     8.6212

          k =-0.0057 0.0429-0.0185 ( 20257 PWs)   bands (ev):

   -59.7817 -59.7383 -59.7162 -59.6801 -59.6410 -59.6000 -59.5624 -59.5405
   -33.9216 -33.8469 -33.8056 -33.7493 -33.7037 -33.6792 -33.6515 -33.6218
   -33.6183 -33.6107 -33.5847 -33.5786 -33.5605 -33.5504 -33.5453 -33.5123
   -33.5028 -33.4487 -33.4444 -33.4285 -33.4128 -33.3846 -33.3744 -33.3593
   -13.6145 -13.3197 -13.1737 -12.7991 -12.6374 -12.5352 -12.2217 -12.1434
   -12.1136 -12.0080 -11.9782 -11.9347 -11.9096 -11.8721 -11.8237 -11.6994
   -11.4824 -11.4180 -11.3711 -11.3313  -1.4308  -0.7655  -0.6789  -0.5886
    -0.5272  -0.3881  -0.2272  -0.1793  -0.1029  -0.0239   0.0304   0.0756
     0.2678   0.3535   0.3845   0.4395   0.5549   0.6547   0.7215   0.8689
     1.0186   1.0611   1.0913   1.1869   1.2539   1.2771   1.3137   1.3739
     1.4714   1.5155   1.6741   1.7842   1.8250   1.9438   2.0221   2.2189
     2.3087   2.3896   2.4595   2.5349   2.6487   2.7310   2.7819   2.8273
     2.9118   2.9583   3.0023   3.0595   3.0978   3.1258   3.2797   3.4552
     3.5686   3.6247   3.6953   3.7385   3.8188   3.9135   4.0388   4.0573
     5.7673   5.9444   6.3096   6.4396   6.6674   7.0285   7.1237   7.3832
     7.5358   7.6037   7.6558   7.6988   7.7918   7.8612   7.9042   8.0238
     8.1047   8.1813   8.2229   8.2890   8.3318   8.3717   8.4095   8.4449
     8.6229

          k = 0.0057-0.0429-0.0185 ( 20257 PWs)   bands (ev):

   -59.7817 -59.7383 -59.7162 -59.6801 -59.6410 -59.6000 -59.5624 -59.5405
   -33.9216 -33.8469 -33.8056 -33.7493 -33.7037 -33.6792 -33.6515 -33.6219
   -33.6187 -33.6099 -33.5849 -33.5793 -33.5592 -33.5503 -33.5460 -33.5123
   -33.5027 -33.4486 -33.4444 -33.4286 -33.4127 -33.3846 -33.3744 -33.3593
   -13.6144 -13.3216 -13.1706 -12.8041 -12.6305 -12.5377 -12.2200 -12.1408
   -12.1203 -12.0058 -11.9811 -11.9340 -11.9076 -11.8736 -11.8230 -11.6986
   -11.4827 -11.4184 -11.3710 -11.3311  -1.4283  -0.7747  -0.6804  -0.5901
    -0.5314  -0.3885  -0.2116  -0.1708  -0.0953  -0.0401   0.0299   0.0701
     0.2689   0.3659   0.3951   0.4389   0.5590   0.6490   0.7082   0.8662
     1.0132   1.0640   1.0905   1.1794   1.2430   1.2822   1.3207   1.3877
     1.4767   1.5106   1.6733   1.7752   1.8290   1.9455   2.0148   2.2051
     2.3207   2.4016   2.4828   2.5056   2.6170   2.7313   2.7853   2.8473
     2.9207   2.9750   2.9929   3.0632   3.0891   3.1473   3.2775   3.4354
     3.5642   3.6250   3.6997   3.7364   3.8199   3.9155   4.0340   4.0605
     5.7621   5.9425   6.3069   6.4395   6.6667   6.9785   7.2027   7.3825
     7.5415   7.5948   7.6581   7.6883   7.8003   7.8617   7.8974   8.0170
     8.1021   8.1902   8.2277   8.2759   8.3246   8.3771   8.4151   8.4416
     8.6231

          k =-0.0171-0.0143 0.0185 ( 20254 PWs)   bands (ev):

   -59.7817 -59.7383 -59.7162 -59.6801 -59.6410 -59.6000 -59.5624 -59.5405
   -33.9201 -33.8455 -33.8043 -33.7480 -33.7024 -33.6789 -33.6503 -33.6214
   -33.6189 -33.6096 -33.5844 -33.5787 -33.5604 -33.5504 -33.5467 -33.5114
   -33.5015 -33.4484 -33.4453 -33.4278 -33.4129 -33.3846 -33.3749 -33.3594
   -13.6554 -13.3709 -13.1994 -12.8201 -12.6806 -12.5391 -12.2556 -12.1592
   -12.1253 -12.0278 -11.9859 -11.9498 -11.9241 -11.8882 -11.8346 -11.7176
   -11.4946 -11.4399 -11.3845 -11.3582  -1.3230  -0.7594  -0.6114  -0.5376
    -0.3854  -0.3273  -0.1455  -0.0177   0.0255   0.1088   0.2691   0.3197
     0.4481   0.5313   0.6934   0.7786   0.8299   0.9927   1.0458   1.2016
     1.2404   1.3268   1.3952   1.4430   1.5380   1.5518   1.5754   1.6189
     1.7217   1.7730   1.8365   1.9141   1.9947   2.0465   2.0883   2.1723
     2.2057   2.2601   2.2977   2.3404   2.3728   2.4092   2.5138   2.5761
     2.6196   2.7394   2.8029   2.9648   2.9972   3.0684   3.1346   3.1808
     3.2858   3.4126   3.4500   3.5694   3.6224   3.6679   3.7575   3.8894
     5.8993   5.9841   6.3357   6.3915   6.6875   7.0130   7.1230   7.3386
     7.3906   7.5741   7.6408   7.6885   7.7162   7.7723   7.8313   7.9028
     7.9725   8.1474   8.1827   8.2038   8.2405   8.3141   8.4179   8.4971
     8.5675

          k =-0.0171 0.0143-0.0185 ( 20254 PWs)   bands (ev):

   -59.7817 -59.7383 -59.7162 -59.6801 -59.6410 -59.6000 -59.5624 -59.5405
   -33.9201 -33.8455 -33.8043 -33.7480 -33.7024 -33.6789 -33.6503 -33.6213
   -33.6185 -33.6104 -33.5842 -33.5778 -33.5617 -33.5505 -33.5460 -33.5114
   -33.5016 -33.4485 -33.4453 -33.4277 -33.4129 -33.3846 -33.3749 -33.3594
   -13.6556 -13.3690 -13.2027 -12.8132 -12.6879 -12.5376 -12.2542 -12.1628
   -12.1216 -12.0293 -11.9853 -11.9505 -11.9241 -11.8879 -11.8341 -11.7178
   -11.4946 -11.4398 -11.3846 -11.3582  -1.3231  -0.7546  -0.6229  -0.5295
    -0.3833  -0.3329  -0.1458  -0.0091   0.0144   0.1121   0.2724   0.3216
     0.4388   0.5491   0.6764   0.7677   0.8750   0.9547   1.0579   1.1888
     1.2445   1.3223   1.3846   1.4756   1.5120   1.5437   1.5999   1.6335
     1.7189   1.7654   1.8448   1.9067   1.9777   2.0276   2.1026   2.1688
     2.1996   2.2591   2.3032   2.3502   2.3752   2.4372   2.5081   2.5767
     2.6182   2.7509   2.7746   2.9723   3.0033   3.0649   3.0962   3.2205
     3.2818   3.4078   3.4477   3.5697   3.6139   3.6771   3.7580   3.8903
     5.8985   5.9853   6.3354   6.3916   6.6885   7.0105   7.1220   7.3396
     7.3944   7.5894   7.6188   7.6894   7.7184   7.7770   7.8283   7.8896
     7.9850   8.1468   8.1701   8.2133   8.2450   8.3125   8.4183   8.4954
     8.5700

          k = 0.0171-0.0143-0.0185 ( 20254 PWs)   bands (ev):

   -59.7817 -59.7383 -59.7162 -59.6801 -59.6410 -59.6000 -59.5624 -59.5405
   -33.9201 -33.8455 -33.8043 -33.7480 -33.7024 -33.6789 -33.6503 -33.6215
   -33.6189 -33.6096 -33.5844 -33.5787 -33.5604 -33.5504 -33.5467 -33.5114
   -33.5015 -33.4484 -33.4453 -33.4278 -33.4129 -33.3846 -33.3750 -33.3594
   -13.6555 -13.3710 -13.1994 -12.8201 -12.6803 -12.5388 -12.2538 -12.1585
   -12.1302 -12.0263 -11.9870 -11.9492 -11.9236 -11.8889 -11.8335 -11.7171
   -11.4949 -11.4402 -11.3845 -11.3581  -1.3203  -0.7591  -0.6159  -0.5347
    -0.4011  -0.3358  -0.1451  -0.0194   0.0238   0.1379   0.2728   0.3334
     0.4226   0.5736   0.6990   0.7484   0.9051   0.9315   1.0297   1.1535
     1.2317   1.3528   1.3835   1.4550   1.5291   1.5482   1.6173   1.6340
     1.6890   1.7733   1.8550   1.9165   1.9592   2.0202   2.0937   2.1858
     2.2242   2.2582   2.3012   2.3427   2.3890   2.4251   2.4745   2.5932
     2.6272   2.7482   2.7928   2.9876   3.0029   3.0614   3.0993   3.1882
     3.2901   3.4014   3.4563   3.5633   3.6198   3.6752   3.7565   3.8911
     5.8965   5.9799   6.3324   6.3921   6.6849   6.9644   7.2005   7.3320
     7.4149   7.5894   7.6248   7.6780   7.7015   7.7787   7.8236   7.8953
     7.9796   8.1461   8.1818   8.2009   8.2397   8.3184   8.4191   8.4912
     8.5704

          k =-0.0171-0.0429 0.0185 ( 20251 PWs)   bands (ev):

   -59.7817 -59.7383 -59.7162 -59.6801 -59.6410 -59.6000 -59.5624 -59.5405
   -33.9216 -33.8469 -33.8056 -33.7493 -33.7034 -33.6792 -33.6514 -33.6218
   -33.6189 -33.6096 -33.5851 -33.5792 -33.5605 -33.5505 -33.5467 -33.5114
   -33.5015 -33.4483 -33.4453 -33.4277 -33.4128 -33.3845 -33.3749 -33.3593
   -13.6074 -13.3371 -13.1665 -12.7950 -12.6497 -12.5204 -12.2236 -12.1379
   -12.1140 -12.0145 -11.9768 -11.9339 -11.9134 -11.8699 -11.8254 -11.6989
   -11.4817 -11.4185 -11.3706 -11.3316  -1.4287  -0.7799  -0.6705  -0.5867
    -0.5435  -0.3790  -0.2096  -0.1692  -0.1081  -0.0674   0.0619   0.1019
     0.2380   0.2974   0.3762   0.4799   0.5265   0.6749   0.7868   0.8882
     0.9462   1.0187   1.0859   1.1878   1.2595   1.3053   1.3723   1.4189
     1.4650   1.5048   1.6516   1.7569   1.8857   1.9712   2.1132   2.2146
     2.2744   2.3579   2.4629   2.5043   2.5611   2.6554   2.7630   2.7856
     2.8485   2.9651   3.0375   3.0739   3.1363   3.2516   3.2906   3.4018
     3.5297   3.6610   3.6862   3.7400   3.8310   3.9168   4.0374   4.0716
     5.7615   5.9497   6.3443   6.4304   6.6718   7.0281   7.1384   7.3738
     7.5684   7.6191   7.6787   7.7237   7.7740   7.8956   7.9054   7.9338
     8.0167   8.1685   8.1798   8.2638   8.3230   8.3669   8.4017   8.5168
     8.6320

          k =-0.0171 0.0429-0.0185 ( 20251 PWs)   bands (ev):

   -59.7817 -59.7383 -59.7162 -59.6801 -59.6410 -59.6000 -59.5624 -59.5405
   -33.9216 -33.8469 -33.8056 -33.7493 -33.7034 -33.6792 -33.6514 -33.6217
   -33.6185 -33.6103 -33.5849 -33.5784 -33.5618 -33.5506 -33.5460 -33.5113
   -33.5016 -33.4484 -33.4453 -33.4277 -33.4129 -33.3846 -33.3749 -33.3593
   -13.6076 -13.3354 -13.1692 -12.7893 -12.6560 -12.5186 -12.2227 -12.1400
   -12.1126 -12.0152 -11.9758 -11.9345 -11.9135 -11.8699 -11.8250 -11.6990
   -11.4817 -11.4184 -11.3707 -11.3316  -1.4287  -0.7740  -0.6784  -0.5948
    -0.5323  -0.3806  -0.2156  -0.1731  -0.1045  -0.0578   0.0606   0.1059
     0.2393   0.2955   0.3692   0.4731   0.5325   0.6739   0.8034   0.8850
     0.9350   1.0134   1.0830   1.1926   1.2550   1.3112   1.3876   1.4147
     1.4676   1.5008   1.6431   1.7639   1.8814   1.9746   2.0944   2.2365
     2.2726   2.3408   2.4582   2.4929   2.5879   2.6779   2.7636   2.7747
     2.8453   2.9703   3.0343   3.0762   3.1196   3.2424   3.3008   3.4068
     3.5277   3.6512   3.7005   3.7350   3.8303   3.9172   4.0385   4.0721
     5.7615   5.9501   6.3437   6.4303   6.6735   7.0257   7.1379   7.3735
     7.5711   7.6290   7.6703   7.7190   7.7784   7.8772   7.9211   7.9302
     8.0202   8.1670   8.1787   8.2651   8.3229   8.3678   8.4035   8.5151
     8.6346

          k = 0.0171-0.0429-0.0185 ( 20251 PWs)   bands (ev):

   -59.7817 -59.7383 -59.7162 -59.6801 -59.6410 -59.6000 -59.5624 -59.5405
   -33.9216 -33.8469 -33.8056 -33.7493 -33.7034 -33.6792 -33.6514 -33.6218
   -33.6189 -33.6096 -33.5851 -33.5792 -33.5605 -33.5505 -33.5467 -33.5114
   -33.5015 -33.4483 -33.4453 -33.4277 -33.4128 -33.3845 -33.3749 -33.3593
   -13.6075 -13.3371 -13.1664 -12.7950 -12.6495 -12.5200 -12.2210 -12.1371
   -12.1198 -12.0130 -11.9783 -11.9345 -11.9112 -11.8710 -11.8242 -11.6982
   -11.4821 -11.4188 -11.3706 -11.3315  -1.4262  -0.7807  -0.6833  -0.5951
    -0.5373  -0.3807  -0.2066  -0.1534  -0.1039  -0.0655   0.0534   0.0979
     0.2360   0.3156   0.3845   0.4705   0.5274   0.6667   0.7970   0.8857
     0.9410   0.9995   1.0864   1.2058   1.2677   1.3008   1.3475   1.4085
     1.4748   1.5158   1.6593   1.7533   1.8813   1.9740   2.1004   2.2093
     2.2904   2.3695   2.4517   2.4932   2.5548   2.6727   2.7628   2.7796
     2.8578   2.9822   3.0286   3.0695   3.1587   3.2389   3.2857   3.3999
     3.5245   3.6528   3.7010   3.7282   3.8340   3.9171   4.0355   4.0749
     5.7561   5.9480   6.3412   6.4307   6.6698   6.9850   7.2133   7.3735
     7.5753   7.6084   7.6659   7.7216   7.7914   7.8734   7.9191   7.9309
     8.0132   8.1685   8.1826   8.2561   8.3140   8.3691   8.4130   8.5146
     8.6338

 ------ SPIN DOWN ----------


          k = 0.0057 0.0143 0.0185 ( 20261 PWs)   bands (ev):

   -59.6802 -59.6376 -59.5905 -59.5690 -59.3701 -59.3677 -59.3389 -59.3351
   -33.7149 -33.7011 -33.6652 -33.6535 -33.6435 -33.6071 -33.6005 -33.5773
   -33.5719 -33.5106 -33.5055 -33.4749 -33.4725 -33.4309 -33.4203 -33.4058
   -33.2029 -33.1610 -33.1428 -33.1232 -33.1167 -33.0957 -33.0374 -33.0245
   -13.6589 -13.3452 -13.2080 -12.8314 -12.6624 -12.5567 -12.2512 -12.1702
   -12.1350 -12.0194 -11.9953 -11.9494 -11.9206 -11.8925 -11.8430 -11.7280
   -11.4903 -11.4358 -11.3811 -11.3549  -1.2102  -0.6886  -0.5961  -0.4835
    -0.3661  -0.3011  -0.1064   0.0342   0.0676   0.1724   0.2980   0.3615
     0.5376   0.5580   0.6652   0.7879   0.9275   0.9654   1.1287   1.2049
     1.2534   1.3044   1.4168   1.4901   1.5155   1.5569   1.6108   1.6605
     1.6975   1.7513   1.8817   1.9694   1.9867   2.0821   2.1126   2.2032
     2.2257   2.2634   2.3230   2.3711   2.3996   2.4384   2.4958   2.5597
     2.6557   2.7250   2.8920   2.9628   3.0060   3.0792   3.1039   3.1859
     3.3270   3.3972   3.4922   3.5577   3.6199   3.6912   3.7377   3.8726
     6.3026   6.3424   6.5797   6.6338   6.9592   7.3318   7.4786   7.5040
     7.6044   7.6777   7.7174   7.8140   7.9024   7.9141   7.9492   7.9891
     8.1803   8.2197   8.3045   8.3517   8.3940   8.4034   8.4468   8.4959
     8.6136

          k = 0.0057 0.0429 0.0185 ( 20257 PWs)   bands (ev):

   -59.6802 -59.6376 -59.5905 -59.5689 -59.3701 -59.3677 -59.3388 -59.3351
   -33.7162 -33.7026 -33.6663 -33.6549 -33.6449 -33.6084 -33.6018 -33.5786
   -33.5719 -33.5105 -33.5054 -33.4748 -33.4724 -33.4308 -33.4202 -33.4057
   -33.2028 -33.1610 -33.1428 -33.1231 -33.1167 -33.0957 -33.0373 -33.0244
   -13.6100 -13.3142 -13.1725 -12.8061 -12.6343 -12.5327 -12.2193 -12.1471
   -12.1283 -12.0087 -11.9822 -11.9341 -11.9166 -11.8713 -11.8326 -11.7096
   -11.4779 -11.4140 -11.3674 -11.3278  -1.3197  -0.7212  -0.6389  -0.5390
    -0.4771  -0.3470  -0.1691  -0.1317  -0.0436   0.0112   0.0511   0.1164
     0.2801   0.3865   0.4166   0.4614   0.5850   0.6634   0.7287   0.8813
     1.0414   1.0896   1.1163   1.1844   1.2675   1.3277   1.3598   1.4037
     1.5052   1.5301   1.6790   1.7858   1.8411   1.9536   2.0372   2.2127
     2.3421   2.4224   2.4615   2.5509   2.6482   2.7390   2.7660   2.8472
     2.8974   2.9907   3.0401   3.0657   3.0967   3.1641   3.2824   3.4449
     3.5878   3.6341   3.6894   3.7395   3.8265   3.9213   4.0388   4.0644
     6.1572   6.3507   6.5980   6.6812   6.9507   7.3616   7.4758   7.6035
     7.6721   7.7265   7.7971   7.8384   7.9303   7.9684   7.9875   8.1015
     8.1689   8.2305   8.3022   8.3680   8.4298   8.4612   8.5213   8.6398
     8.6864

          k = 0.0171 0.0143 0.0185 ( 20254 PWs)   bands (ev):

   -59.6802 -59.6376 -59.5905 -59.5690 -59.3701 -59.3677 -59.3389 -59.3351
   -33.7149 -33.7011 -33.6652 -33.6535 -33.6435 -33.6072 -33.6005 -33.5773
   -33.5717 -33.5106 -33.5057 -33.4745 -33.4726 -33.4309 -33.4206 -33.4059
   -33.2026 -33.1608 -33.1430 -33.1230 -33.1169 -33.0959 -33.0373 -33.0245
   -13.6515 -13.3633 -13.2028 -12.8198 -12.6841 -12.5358 -12.2530 -12.1664
   -12.1341 -12.0300 -11.9899 -11.9515 -11.9249 -11.8906 -11.8428 -11.7276
   -11.4901 -11.4356 -11.3809 -11.3548  -1.2133  -0.7097  -0.5773  -0.4798
    -0.3559  -0.2918  -0.1037   0.0185   0.0489   0.1737   0.3083   0.3547
     0.4493   0.6220   0.7216   0.7790   0.8926   1.0132   1.0538   1.1959
     1.2537   1.3656   1.4076   1.4833   1.5465   1.5709   1.6375   1.6727
     1.6989   1.7965   1.8695   1.9548   1.9973   2.0370   2.0983   2.1991
     2.2430   2.2506   2.2996   2.3656   2.4032   2.4354   2.4614   2.5877
     2.6340   2.7554   2.8289   2.9907   2.9949   3.0758   3.1171   3.1904
     3.3055   3.4244   3.4526   3.5647   3.6258   3.6740   3.7570   3.8944
     6.3012   6.3403   6.6167   6.6418   6.9726   7.3292   7.4561   7.5488
     7.6285   7.7073   7.7352   7.7748   7.8580   7.9145   7.9470   7.9719
     8.0491   8.2202   8.2484   8.3417   8.3947   8.4268   8.4989   8.5417
     8.5960

          k = 0.0171 0.0429 0.0185 ( 20251 PWs)   bands (ev):

   -59.6802 -59.6376 -59.5905 -59.5689 -59.3701 -59.3677 -59.3388 -59.3351
   -33.7161 -33.7026 -33.6663 -33.6550 -33.6449 -33.6085 -33.6018 -33.5787
   -33.5716 -33.5105 -33.5056 -33.4744 -33.4725 -33.4308 -33.4205 -33.4058
   -33.2025 -33.1608 -33.1430 -33.1230 -33.1168 -33.0958 -33.0373 -33.0244
   -13.6033 -13.3295 -13.1686 -12.7967 -12.6521 -12.5165 -12.2202 -12.1452
   -12.1261 -12.0155 -11.9795 -11.9356 -11.9188 -11.8692 -11.8342 -11.7092
   -11.4773 -11.4143 -11.3670 -11.3281  -1.3173  -0.7289  -0.6396  -0.5431
    -0.4849  -0.3382  -0.1630  -0.1154  -0.0543  -0.0219   0.0900   0.1401
     0.2487   0.3263   0.4156   0.4881   0.5521   0.6840   0.8121   0.8993
     0.9656   1.0478   1.0977   1.2248   1.2884   1.3376   1.3914   1.4243
     1.4917   1.5369   1.6747   1.7552   1.8964   1.9808   2.1130   2.2480
     2.3030   2.3575   2.4778   2.5148   2.5805   2.6627   2.7743   2.7873
     2.8529   2.9908   3.0580   3.0762   3.1451   3.2590   3.3044   3.3976
     3.5564   3.6595   3.6913   3.7319   3.8379   3.9221   4.0403   4.0772
     6.1438   6.3625   6.6388   6.6731   6.9668   7.3655   7.4549   7.6162
     7.7340   7.7489   7.8000   7.8566   7.9321   7.9596   7.9832   8.0190
     8.1085   8.2010   8.2442   8.3767   8.4094   8.4462   8.5769   8.6121
     8.7257

          k =-0.0057-0.0143 0.0185 ( 20261 PWs)   bands (ev):

   -59.6802 -59.6376 -59.5905 -59.5690 -59.3701 -59.3677 -59.3389 -59.3351
   -33.7149 -33.7011 -33.6652 -33.6535 -33.6435 -33.6071 -33.6005 -33.5773
   -33.5719 -33.5106 -33.5055 -33.4749 -33.4725 -33.4309 -33.4203 -33.4058
   -33.2029 -33.1610 -33.1428 -33.1232 -33.1167 -33.0957 -33.0374 -33.0245
   -13.6586 -13.3474 -13.2043 -12.8370 -12.6559 -12.5593 -12.2550 -12.1656
   -12.1359 -12.0167 -11.9959 -11.9494 -11.9222 -11.8921 -11.8437 -11.7286
   -11.4900 -11.4355 -11.3812 -11.3550  -1.2129  -0.6964  -0.5767  -0.4930
    -0.3549  -0.2954  -0.1042   0.0299   0.0652   0.1851   0.2791   0.3605
     0.4710   0.5659   0.6875   0.8080   0.9068   0.9883   1.1299   1.2364
     1.2736   1.3067   1.3979   1.4444   1.5162   1.5474   1.5928   1.6524
     1.7370   1.8041   1.8509   1.9398   2.0315   2.0962   2.1465   2.1872
     2.2220   2.2547   2.2954   2.3546   2.3935   2.4230   2.5231   2.5452
     2.6737   2.7196   2.8715   2.9484   3.0155   3.0646   3.1351   3.1911
     3.3289   3.3960   3.4937   3.5549   3.6180   3.6921   3.7407   3.8713
     6.3027   6.3518   6.5810   6.6390   6.9586   7.3328   7.4697   7.4946
     7.5990   7.6766   7.6975   7.8261   7.8945   7.9113   7.9503   7.9971
     8.1808   8.2212   8.3144   8.3469   8.4025   8.4104   8.4435   8.4925
     8.6122

          k =-0.0057 0.0143-0.0185 ( 20261 PWs)   bands (ev):

   -59.6802 -59.6376 -59.5905 -59.5690 -59.3701 -59.3677 -59.3389 -59.3351
   -33.7149 -33.7011 -33.6652 -33.6534 -33.6435 -33.6071 -33.6005 -33.5773
   -33.5719 -33.5106 -33.5055 -33.4749 -33.4725 -33.4309 -33.4203 -33.4058
   -33.2029 -33.1610 -33.1428 -33.1232 -33.1167 -33.0957 -33.0374 -33.0245
   -13.6588 -13.3452 -13.2080 -12.8314 -12.6628 -12.5567 -12.2537 -12.1693
   -12.1321 -12.0186 -11.9948 -11.9504 -11.9218 -11.8919 -11.8430 -11.7288
   -11.4901 -11.4355 -11.3812 -11.3550  -1.2130  -0.6888  -0.5913  -0.4850
    -0.3523  -0.3005  -0.1048   0.0336   0.0623   0.1762   0.2916   0.3681
     0.4544   0.5801   0.6916   0.7873   0.9210   1.0056   1.1058   1.2271
     1.2587   1.3231   1.3904   1.4758   1.4921   1.5418   1.6205   1.6558
     1.7320   1.8020   1.8497   1.9375   2.0215   2.0943   2.1326   2.1766
     2.2094   2.2723   2.3188   2.3536   2.3960   2.4361   2.5092   2.5650
     2.6587   2.7424   2.8351   2.9657   3.0153   3.0729   3.0937   3.2254
     3.3258   3.3930   3.4915   3.5510   3.6177   3.6955   3.7419   3.8723
     6.3030   6.3512   6.5819   6.6387   6.9584   7.3322   7.4522   7.5125
     7.6028   7.6716   7.7042   7.8204   7.8862   7.9271   7.9420   7.9987
     8.1727   8.2155   8.3356   8.3632   8.3781   8.4068   8.4417   8.4963
     8.6138

          k = 0.0057-0.0143-0.0185 ( 20261 PWs)   bands (ev):

   -59.6802 -59.6376 -59.5905 -59.5690 -59.3701 -59.3677 -59.3389 -59.3351
   -33.7149 -33.7011 -33.6652 -33.6535 -33.6435 -33.6071 -33.6005 -33.5773
   -33.5719 -33.5106 -33.5055 -33.4749 -33.4725 -33.4309 -33.4203 -33.4058
   -33.2029 -33.1610 -33.1428 -33.1232 -33.1167 -33.0957 -33.0374 -33.0245
   -13.6587 -13.3475 -13.2043 -12.8369 -12.6557 -12.5590 -12.2528 -12.1650
   -12.1405 -12.0158 -11.9976 -11.9484 -11.9207 -11.8934 -11.8426 -11.7281
   -11.4904 -11.4358 -11.3811 -11.3549  -1.2103  -0.6954  -0.5832  -0.4890
    -0.3661  -0.3014  -0.1057   0.0296   0.0700   0.1889   0.2782   0.3646
     0.5105   0.5842   0.6669   0.7810   0.9360   0.9812   1.1192   1.1923
     1.2461   1.3158   1.4212   1.4741   1.5233   1.5668   1.6154   1.6570
     1.6919   1.7504   1.8970   1.9495   1.9841   2.0835   2.1064   2.2011
     2.2320   2.2873   2.3032   2.3606   2.3962   2.4467   2.5092   2.5681
     2.6527   2.7310   2.8723   2.9671   3.0056   3.0682   3.1153   3.1884
     3.3249   3.3932   3.4963   3.5535   3.6203   3.6936   3.7383   3.8733
     6.3036   6.3412   6.5804   6.6341   6.9589   7.3311   7.4659   7.5169
     7.6064   7.6761   7.7192   7.8130   7.8932   7.9217   7.9452   7.9892
     8.1774   8.2258   8.3307   8.3499   8.3660   8.4049   8.4464   8.4973
     8.6158

          k =-0.0057-0.0429 0.0185 ( 20257 PWs)   bands (ev):

   -59.6802 -59.6376 -59.5905 -59.5689 -59.3701 -59.3677 -59.3388 -59.3351
   -33.7162 -33.7026 -33.6663 -33.6549 -33.6449 -33.6084 -33.6018 -33.5786
   -33.5718 -33.5105 -33.5054 -33.4748 -33.4724 -33.4308 -33.4202 -33.4057
   -33.2028 -33.1610 -33.1428 -33.1231 -33.1167 -33.0957 -33.0373 -33.0244
   -13.6098 -13.3161 -13.1693 -12.8108 -12.6287 -12.5353 -12.2240 -12.1419
   -12.1280 -12.0076 -11.9821 -11.9327 -11.9197 -11.8706 -11.8332 -11.7104
   -11.4776 -11.4136 -11.3675 -11.3280  -1.3221  -0.7267  -0.6187  -0.5295
    -0.4873  -0.3435  -0.1712  -0.1385  -0.0561  -0.0002   0.0665   0.1167
     0.2762   0.3788   0.4206   0.4574   0.5885   0.6546   0.7410   0.8832
     1.0431   1.0774   1.1373   1.2222   1.2694   1.2953   1.3358   1.4049
     1.4932   1.5422   1.6874   1.7874   1.8419   1.9554   2.0317   2.2306
     2.3405   2.4027   2.5002   2.5336   2.6410   2.7273   2.7930   2.8353
     2.8895   2.9771   3.0410   3.0567   3.1095   3.1559   3.2790   3.4595
     3.5892   3.6348   3.6892   3.7420   3.8235   3.9195   4.0429   4.0616
     6.1661   6.3508   6.5980   6.6869   6.9500   7.3634   7.4578   7.6020
     7.6679   7.7123   7.7962   7.8575   7.9259   7.9576   7.9963   8.0988
     8.1723   8.2376   8.2966   8.3683   8.4306   8.4629   8.5253   8.6412
     8.6856

          k =-0.0057 0.0429-0.0185 ( 20257 PWs)   bands (ev):

   -59.6802 -59.6376 -59.5905 -59.5689 -59.3701 -59.3677 -59.3388 -59.3351
   -33.7162 -33.7026 -33.6663 -33.6549 -33.6450 -33.6084 -33.6018 -33.5786
   -33.5718 -33.5105 -33.5054 -33.4748 -33.4724 -33.4308 -33.4202 -33.4057
   -33.2029 -33.1610 -33.1428 -33.1231 -33.1167 -33.0957 -33.0373 -33.0244
   -13.6099 -13.3142 -13.1724 -12.8061 -12.6348 -12.5328 -12.2231 -12.1446
   -12.1258 -12.0085 -11.9809 -11.9334 -11.9197 -11.8707 -11.8327 -11.7106
   -11.4777 -11.4136 -11.3675 -11.3279  -1.3222  -0.7196  -0.6294  -0.5348
    -0.4766  -0.3459  -0.1754  -0.1405  -0.0605   0.0164   0.0652   0.1176
     0.2774   0.3784   0.4098   0.4623   0.5737   0.6744   0.7393   0.8837
     1.0428   1.0781   1.1207   1.2125   1.2786   1.3050   1.3461   1.4059
     1.4943   1.5370   1.6835   1.7916   1.8376   1.9518   2.0366   2.2308
     2.3280   2.4061   2.4770   2.5471   2.6631   2.7424   2.7824   2.8315
     2.9176   2.9688   3.0130   3.0637   3.1106   3.1375   3.2896   3.4629
     3.5887   3.6281   3.6961   3.7401   3.8227   3.9198   4.0442   4.0618
     6.1662   6.3509   6.5986   6.6867   6.9498   7.3629   7.4556   7.6023
     7.6684   7.7158   7.8024   7.8491   7.9206   7.9648   7.9913   8.1010
     8.1751   8.2353   8.2973   8.3672   8.4302   8.4651   8.5232   8.6403
     8.6900

          k = 0.0057-0.0429-0.0185 ( 20257 PWs)   bands (ev):

   -59.6802 -59.6376 -59.5905 -59.5689 -59.3701 -59.3677 -59.3388 -59.3351
   -33.7162 -33.7026 -33.6663 -33.6549 -33.6449 -33.6084 -33.6018 -33.5786
   -33.5718 -33.5105 -33.5054 -33.4748 -33.4724 -33.4308 -33.4202 -33.4057
   -33.2028 -33.1610 -33.1428 -33.1231 -33.1167 -33.0957 -33.0373 -33.0244
   -13.6099 -13.3162 -13.1693 -12.8107 -12.6285 -12.5351 -12.2207 -12.1418
   -12.1332 -12.0063 -11.9846 -11.9331 -11.9167 -11.8721 -11.8320 -11.7098
   -11.4779 -11.4139 -11.3675 -11.3278  -1.3198  -0.7283  -0.6282  -0.5364
    -0.4827  -0.3466  -0.1648  -0.1291  -0.0514  -0.0030   0.0663   0.1139
     0.2782   0.3890   0.4238   0.4582   0.5785   0.6691   0.7268   0.8820
     1.0362   1.0909   1.1087   1.2081   1.2636   1.3135   1.3525   1.4211
     1.4974   1.5328   1.6831   1.7831   1.8409   1.9533   2.0300   2.2191
     2.3406   2.4164   2.4985   2.5168   2.6331   2.7405   2.7881   2.8522
     2.9237   2.9854   3.0027   3.0683   3.1023   3.1580   3.2875   3.4452
     3.5844   3.6281   3.7015   3.7372   3.8242   3.9217   4.0398   4.0648
     6.1573   6.3506   6.5982   6.6815   6.9506   7.3613   7.4737   7.6047
     7.6740   7.7257   7.8054   7.8320   7.9267   7.9550   7.9990   8.1015
     8.1681   8.2399   8.2977   8.3700   8.4247   8.4634   8.5190   8.6429
     8.6871

          k =-0.0171-0.0143 0.0185 ( 20254 PWs)   bands (ev):

   -59.6802 -59.6376 -59.5905 -59.5690 -59.3701 -59.3677 -59.3389 -59.3351
   -33.7149 -33.7011 -33.6652 -33.6535 -33.6435 -33.6072 -33.6005 -33.5773
   -33.5717 -33.5106 -33.5057 -33.4746 -33.4725 -33.4309 -33.4206 -33.4059
   -33.2026 -33.1608 -33.1430 -33.1230 -33.1169 -33.0959 -33.0373 -33.0245
   -13.6512 -13.3652 -13.1995 -12.8260 -12.6780 -12.5374 -12.2568 -12.1606
   -12.1361 -12.0281 -11.9899 -11.9515 -11.9258 -11.8905 -11.8436 -11.7281
   -11.4898 -11.4353 -11.3810 -11.3549  -1.2160  -0.7144  -0.5627  -0.4892
    -0.3414  -0.2839  -0.1037   0.0159   0.0618   0.1484   0.3028   0.3348
     0.4814   0.5585   0.7241   0.8120   0.8621   1.0250   1.0816   1.2300
     1.2733   1.3484   1.4094   1.4662   1.5588   1.5755   1.5950   1.6424
     1.7476   1.8036   1.8625   1.9401   2.0143   2.0644   2.0960   2.1811
     2.2182   2.2732   2.3036   2.3492   2.3806   2.4193   2.5187   2.5801
     2.6290   2.7495   2.8135   2.9693   3.0037   3.0758   3.1430   3.1926
     3.2972   3.4271   3.4541   3.5704   3.6222   3.6728   3.7584   3.8935
     6.3020   6.3488   6.6218   6.6432   6.9727   7.3296   7.4485   7.5395
     7.6250   7.6936   7.7185   7.7866   7.8479   7.9194   7.9450   7.9837
     8.0512   8.2144   8.2541   8.3441   8.4116   8.4280   8.4909   8.5421
     8.5966

          k =-0.0171 0.0143-0.0185 ( 20254 PWs)   bands (ev):

   -59.6802 -59.6376 -59.5905 -59.5690 -59.3701 -59.3677 -59.3389 -59.3351
   -33.7149 -33.7011 -33.6652 -33.6535 -33.6435 -33.6072 -33.6005 -33.5773
   -33.5717 -33.5106 -33.5057 -33.4745 -33.4726 -33.4309 -33.4206 -33.4059
   -33.2026 -33.1608 -33.1430 -33.1230 -33.1169 -33.0959 -33.0373 -33.0245
   -13.6514 -13.3633 -13.2027 -12.8198 -12.6845 -12.5359 -12.2556 -12.1651
   -12.1313 -12.0298 -11.9892 -11.9524 -11.9257 -11.8903 -11.8430 -11.7283
   -11.4899 -11.4353 -11.3810 -11.3549  -1.2161  -0.7093  -0.5747  -0.4811
    -0.3384  -0.2903  -0.1041   0.0232   0.0512   0.1520   0.3009   0.3439
     0.4692   0.5764   0.7125   0.7975   0.9015   0.9936   1.0937   1.2176
     1.2754   1.3438   1.3991   1.4950   1.5354   1.5655   1.6205   1.6617
     1.7419   1.7972   1.8714   1.9306   1.9974   2.0452   2.1109   2.1826
     2.2072   2.2707   2.3079   2.3623   2.3824   2.4474   2.5137   2.5807
     2.6260   2.7615   2.7855   2.9785   3.0091   3.0747   3.1030   3.2300
     3.2940   3.4232   3.4514   3.5708   3.6149   3.6804   3.7591   3.8943
     6.3023   6.3483   6.6230   6.6427   6.9725   7.3291   7.4390   7.5500
     7.6315   7.6882   7.7243   7.7848   7.8431   7.9140   7.9390   7.9925
     8.0523   8.2074   8.2584   8.3550   8.3962   8.4350   8.4896   8.5407
     8.5997

          k = 0.0171-0.0143-0.0185 ( 20254 PWs)   bands (ev):

   -59.6802 -59.6376 -59.5905 -59.5690 -59.3701 -59.3677 -59.3389 -59.3351
   -33.7149 -33.7011 -33.6652 -33.6535 -33.6435 -33.6072 -33.6005 -33.5773
   -33.5717 -33.5106 -33.5057 -33.4746 -33.4725 -33.4309 -33.4206 -33.4059
   -33.2026 -33.1608 -33.1430 -33.1230 -33.1169 -33.0959 -33.0373 -33.0245
   -13.6513 -13.3652 -13.1995 -12.8260 -12.6777 -12.5371 -12.2547 -12.1601
   -12.1409 -12.0271 -11.9912 -11.9506 -11.9250 -11.8914 -11.8425 -11.7277
   -11.4901 -11.4356 -11.3809 -11.3547  -1.2134  -0.7140  -0.5670  -0.4852
    -0.3555  -0.2924  -0.1029   0.0125   0.0573   0.1753   0.3029   0.3526
     0.4494   0.6109   0.7303   0.7758   0.9358   0.9711   1.0672   1.1837
     1.2583   1.3697   1.4018   1.4806   1.5532   1.5707   1.6419   1.6672
     1.7037   1.7947   1.8806   1.9384   1.9813   2.0449   2.1007   2.1966
     2.2353   2.2639   2.3071   2.3553   2.3968   2.4342   2.4811   2.6001
     2.6330   2.7592   2.8038   2.9930   3.0082   3.0694   3.1069   3.2001
     3.3025   3.4172   3.4591   3.5635   3.6216   3.6790   3.7576   3.8951
     6.3021   6.3391   6.6173   6.6422   6.9723   7.3287   7.4491   7.5565
     7.6327   7.7060   7.7278   7.7884   7.8400   7.9128   7.9435   7.9823
     8.0533   8.2112   8.2599   8.3513   8.3775   8.4318   8.4967   8.5378
     8.6011

          k =-0.0171-0.0429 0.0185 ( 20251 PWs)   bands (ev):

   -59.6802 -59.6376 -59.5905 -59.5689 -59.3701 -59.3677 -59.3388 -59.3351
   -33.7161 -33.7026 -33.6663 -33.6550 -33.6449 -33.6085 -33.6018 -33.5787
   -33.5716 -33.5105 -33.5056 -33.4745 -33.4724 -33.4308 -33.4205 -33.4058
   -33.2025 -33.1608 -33.1430 -33.1230 -33.1168 -33.0958 -33.0373 -33.0244
   -13.6030 -13.3312 -13.1658 -12.8017 -12.6469 -12.5183 -12.2248 -12.1396
   -12.1261 -12.0147 -11.9793 -11.9335 -11.9221 -11.8689 -11.8349 -11.7099
   -11.4770 -11.4139 -11.3672 -11.3282  -1.3198  -0.7350  -0.6186  -0.5335
    -0.4944  -0.3357  -0.1578  -0.1255  -0.0657  -0.0356   0.1036   0.1397
     0.2527   0.3134   0.4050   0.5008   0.5494   0.6872   0.8083   0.9021
     0.9658   1.0595   1.0994   1.2265   1.2857   1.3319   1.3943   1.4429
     1.4853   1.5247   1.6692   1.7666   1.8919   1.9782   2.1324   2.2268
     2.2893   2.3768   2.4773   2.5212   2.5777   2.6635   2.7727   2.7960
     2.8546   2.9726   3.0444   3.0798   3.1434   3.2625   3.2992   3.4082
     3.5558   3.6628   3.6872   3.7420   3.8325   3.9225   4.0428   4.0745
     6.1523   6.3636   6.6382   6.6788   6.9666   7.3659   7.4395   7.6161
     7.7033   7.7571   7.8063   7.8651   7.9197   7.9588   8.0037   8.0096
     8.1099   8.2071   8.2368   8.3773   8.4120   8.4514   8.5751   8.6159
     8.7242

          k =-0.0171 0.0429-0.0185 ( 20251 PWs)   bands (ev):

   -59.6802 -59.6376 -59.5905 -59.5689 -59.3701 -59.3677 -59.3388 -59.3351
   -33.7162 -33.7026 -33.6663 -33.6550 -33.6449 -33.6085 -33.6018 -33.5787
   -33.5716 -33.5105 -33.5056 -33.4744 -33.4725 -33.4308 -33.4205 -33.4058
   -33.2025 -33.1608 -33.1430 -33.1230 -33.1168 -33.0958 -33.0373 -33.0244
   -13.6032 -13.3295 -13.1686 -12.7966 -12.6525 -12.5166 -12.2239 -12.1425
   -12.1238 -12.0154 -11.9783 -11.9341 -11.9221 -11.8689 -11.8344 -11.7100
   -11.4771 -11.4139 -11.3672 -11.3282  -1.3199  -0.7288  -0.6280  -0.5396
    -0.4837  -0.3376  -0.1616  -0.1328  -0.0691  -0.0176   0.1046   0.1418
     0.2533   0.3130   0.3967   0.4944   0.5548   0.6863   0.8246   0.8995
     0.9540   1.0568   1.0955   1.2314   1.2782   1.3362   1.4144   1.4390
     1.4856   1.5208   1.6613   1.7727   1.8882   1.9815   2.1135   2.2461
     2.2893   2.3608   2.4749   2.5088   2.6029   2.6849   2.7732   2.7862
     2.8507   2.9769   3.0432   3.0811   3.1276   3.2542   3.3076   3.4136
     3.5545   3.6523   3.7008   3.7379   3.8318   3.9229   4.0438   4.0749
     6.1523   6.3637   6.6392   6.6783   6.9664   7.3651   7.4376   7.6161
     7.7043   7.7630   7.8184   7.8505   7.9067   7.9623   7.9904   8.0325
     8.1092   8.2055   8.2365   8.3787   8.4086   8.4536   8.5745   8.6151
     8.7274

          k = 0.0171-0.0429-0.0185 ( 20251 PWs)   bands (ev):

   -59.6802 -59.6376 -59.5905 -59.5689 -59.3701 -59.3677 -59.3388 -59.3351
   -33.7161 -33.7026 -33.6663 -33.6550 -33.6449 -33.6085 -33.6018 -33.5787
   -33.5716 -33.5105 -33.5056 -33.4745 -33.4724 -33.4308 -33.4205 -33.4058
   -33.2025 -33.1608 -33.1430 -33.1230 -33.1168 -33.0958 -33.0373 -33.0244
   -13.6031 -13.3313 -13.1657 -12.8017 -12.6466 -12.5180 -12.2215 -12.1399
   -12.1312 -12.0135 -11.9813 -11.9345 -11.9189 -11.8700 -11.8336 -11.7093
   -11.4774 -11.4142 -11.3671 -11.3281  -1.3174  -0.7352  -0.6300  -0.5404
    -0.4901  -0.3380  -0.1587  -0.1065  -0.0664  -0.0328   0.1058   0.1295
     0.2496   0.3308   0.4151   0.4887   0.5517   0.6803   0.8179   0.8999
     0.9594   1.0451   1.0963   1.2428   1.2943   1.3251   1.3742   1.4380
     1.4891   1.5352   1.6763   1.7630   1.8883   1.9809   2.1195   2.2228
     2.3065   2.3876   2.4669   2.5061   2.5726   2.6798   2.7719   2.7902
     2.8634   2.9880   3.0401   3.0729   3.1652   3.2490   3.2951   3.4083
     3.5514   3.6534   3.7019   3.7306   3.8360   3.9226   4.0412   4.0776
     6.1439   6.3624   6.6388   6.6736   6.9667   7.3652   7.4528   7.6170
     7.7380   7.7490   7.8161   7.8382   7.9176   7.9575   7.9837   8.0358
     8.1073   8.2047   8.2405   8.3801   8.4031   8.4492   8.5713   8.6174
     8.7267

     the Fermi energy is     6.2734 ev

!    total energy              =   -2586.84214870 Ry
     Harris-Foulkes estimate   =   -2586.84214893 Ry
     estimated scf accuracy    <       0.00000057 Ry

     total all-electron energy =    -18686.692940 Ry

     The total energy is the sum of the following terms:

     one-electron contribution =   -1204.59778248 Ry
     hartree contribution      =     702.53988994 Ry
     xc contribution           =    -344.22446391 Ry
     ewald contribution        =    -975.89815198 Ry
     one-center paw contrib.   =    -764.65909936 Ry
     smearing contrib. (-TS)   =      -0.00254091 Ry

     total magnetization       =     1.53 Bohr mag/cell
     absolute magnetization    =     2.11 Bohr mag/cell

     convergence has been achieved in  49 iterations

     Forces acting on atoms (Ry/au):

     atom    1 type  2   force =    -0.02897814   -0.00036830    0.00174285
     atom    2 type  2   force =     0.01596800    0.00081526    0.00149994
     atom    3 type  2   force =     0.07359136    0.00739739    0.04034418
     atom    4 type  2   force =    -0.07288695    0.01116991    0.05679421
     atom    5 type  1   force =     0.00180336    0.00108118    0.00039404
     atom    6 type  1   force =    -0.00498891    0.03616355   -0.03701729
     atom    7 type  1   force =     0.00071050    0.00262195    0.00042027
     atom    8 type  1   force =    -0.00028758    0.00221802    0.00038446
     atom    9 type  1   force =    -0.01386470   -0.03362045   -0.00993873
     atom   10 type  1   force =     0.01546046   -0.04469836   -0.01463632
     atom   11 type  1   force =     0.00583258   -0.00280626   -0.00778210
     atom   12 type  1   force =    -0.00441777   -0.00275192   -0.00549378
     atom   13 type  1   force =    -0.01769461    0.00267562    0.00014339
     atom   14 type  1   force =     0.01803705    0.00256965    0.00031348
     atom   15 type  2   force =    -0.00288344   -0.00195718   -0.00200660
     atom   16 type  2   force =     0.00011404   -0.00112373   -0.00182695
     atom   17 type  2   force =     0.10912011    0.01210631   -0.04374537
     atom   18 type  2   force =    -0.11194879    0.01760725   -0.06275623
[...]
     1.1609   1.2559   1.3060   1.3915   1.4530   1.4935   1.5252   1.6383
     1.7693   1.9497   1.9748   2.0238   2.1004   2.1359   2.1516   2.2158
     2.2447   2.2894   2.3245   2.3844   2.4284   2.4643   2.5677   2.6066
     2.6924   2.7203   2.7709   2.8259   2.8972   3.0704   3.1278   3.2188
     3.3020   3.3594   3.4127   3.5771   3.6121   3.6661   3.7075   3.7671
     6.1879   6.5065   6.7753   6.9705   7.1369   7.1755   7.3172   7.4154
     7.5745   7.6276   7.6628   7.7199   7.7750   7.8596   7.8869   7.9549
     8.0066   8.1660   8.2308   8.3085   8.3713   8.4580   8.5566   8.5771
     8.6331

          k =-0.0057-0.0429 0.0185 ( 20257 PWs)   bands (ev):

   -59.6763 -59.6199 -59.5541 -59.5255 -59.5202 -59.3530 -59.0878 -59.0831
   -33.8708 -33.8650 -33.6827 -33.6777 -33.6542 -33.6088 -33.4949 -33.4917
   -33.4560 -33.4530 -33.4191 -33.3990 -33.3863 -33.3786 -33.2982 -33.2552
   -33.1988 -33.1963 -33.1276 -33.1168 -32.8173 -32.7834 -32.7610 -32.7483
   -13.9571 -13.1411 -13.0521 -12.8748 -12.7108 -12.6541 -12.5702 -12.4774
   -12.4392 -12.3180 -12.2535 -12.0929 -12.0278 -11.7669 -11.5857 -11.5340
   -11.5048 -11.4479 -11.3721 -11.1807  -1.7726  -1.0555  -0.8268  -0.4558
    -0.3449  -0.2871  -0.2049  -0.1105   0.0232   0.1533   0.2493   0.3364
     0.4445   0.4608   0.5017   0.5254   0.6506   0.7080   0.7651   0.8404
     0.8596   1.0157   1.0511   1.0742   1.1992   1.2793   1.3561   1.4445
     1.6437   1.7159   1.7562   1.8193   1.9052   1.9236   2.0945   2.1273
     2.2768   2.2905   2.4024   2.4844   2.5267   2.6796   2.7730   2.8141
     2.8587   2.9391   2.9893   3.0269   3.0727   3.2654   3.2886   3.3780
     3.4449   3.5094   3.6421   3.7056   3.7651   3.8423   3.8626   4.1350
     6.2187   6.5088   6.7520   6.8141   7.0621   7.2232   7.3765   7.3881
     7.5598   7.5964   7.6615   7.7175   7.8602   7.9325   7.9560   7.9953
     8.0573   8.1442   8.1869   8.3132   8.4018   8.4872   8.5865   8.6354
     8.7702

          k =-0.0057 0.0429-0.0185 ( 20257 PWs)   bands (ev):

   -59.6763 -59.6199 -59.5541 -59.5255 -59.5202 -59.3530 -59.0878 -59.0831
   -33.8708 -33.8650 -33.6827 -33.6777 -33.6542 -33.6087 -33.4949 -33.4917
   -33.4560 -33.4531 -33.4191 -33.3990 -33.3863 -33.3786 -33.2982 -33.2552
   -33.1988 -33.1963 -33.1276 -33.1168 -32.8173 -32.7834 -32.7610 -32.7483
   -13.9571 -13.1421 -13.0524 -12.8710 -12.7146 -12.6536 -12.5695 -12.4766
   -12.4379 -12.3204 -12.2545 -12.0915 -12.0280 -11.7666 -11.5855 -11.5339
   -11.5050 -11.4479 -11.3721 -11.1808  -1.7722  -1.0556  -0.8283  -0.4524
    -0.3336  -0.2968  -0.2064  -0.1173   0.0280   0.1560   0.2488   0.3235
     0.4271   0.4829   0.4983   0.5502   0.6473   0.6809   0.7505   0.8461
     0.8838   0.9933   1.0396   1.1273   1.1816   1.2876   1.3556   1.4460
     1.6064   1.7148   1.7539   1.8545   1.8815   2.0047   2.0486   2.1366
     2.2624   2.2866   2.4021   2.4730   2.5188   2.6729   2.7723   2.8163
     2.8624   2.9582   3.0009   3.0246   3.0910   3.2407   3.2681   3.3712
     3.4514   3.4945   3.6323   3.7263   3.7815   3.8422   3.8599   4.1374
     6.2191   6.5116   6.7519   6.8155   7.0602   7.2132   7.3500   7.4161
     7.5554   7.5983   7.6719   7.7070   7.8572   7.9337   7.9602   8.0002
     8.0539   8.1306   8.2048   8.3222   8.4152   8.4744   8.5892   8.6332
     8.7681

          k = 0.0057-0.0429-0.0185 ( 20257 PWs)   bands (ev):

   -59.6763 -59.6199 -59.5541 -59.5255 -59.5202 -59.3530 -59.0878 -59.0831
   -33.8708 -33.8650 -33.6827 -33.6777 -33.6542 -33.6087 -33.4949 -33.4917
   -33.4560 -33.4531 -33.4191 -33.3990 -33.3863 -33.3786 -33.2982 -33.2552
   -33.1988 -33.1963 -33.1276 -33.1168 -32.8173 -32.7834 -32.7610 -32.7483
   -13.9571 -13.1419 -13.0522 -12.8717 -12.7146 -12.6534 -12.5694 -12.4767
   -12.4376 -12.3206 -12.2545 -12.0914 -12.0281 -11.7666 -11.5856 -11.5338
   -11.5050 -11.4479 -11.3721 -11.1808  -1.7723  -1.0555  -0.8283  -0.4523
    -0.3339  -0.2969  -0.2067  -0.1174   0.0285   0.1564   0.2488   0.3232
     0.4285   0.4823   0.4990   0.5485   0.6470   0.6813   0.7502   0.8455
     0.8845   0.9935   1.0405   1.1265   1.1811   1.2883   1.3551   1.4469
     1.6064   1.7149   1.7531   1.8533   1.8820   2.0050   2.0491   2.1364
     2.2634   2.2863   2.4006   2.4751   2.5173   2.6738   2.7711   2.8169
     2.8627   2.9584   3.0014   3.0238   3.0907   3.2413   3.2690   3.3700
     3.4515   3.4950   3.6320   3.7266   3.7808   3.8423   3.8600   4.1373
     6.2190   6.5115   6.7530   6.8147   7.0600   7.2133   7.3494   7.4167
     7.5527   7.6008   7.6719   7.7069   7.8573   7.9341   7.9601   7.9998
     8.0544   8.1310   8.2050   8.3213   8.4140   8.4765   8.5888   8.6336
     8.7679

          k =-0.0171-0.0143 0.0185 ( 20254 PWs)   bands (ev):

   -59.6763 -59.6200 -59.5541 -59.5256 -59.5203 -59.3530 -59.0878 -59.0832
   -33.8696 -33.8639 -33.6814 -33.6770 -33.6536 -33.6076 -33.4949 -33.4918
   -33.4550 -33.4519 -33.4192 -33.3980 -33.3860 -33.3785 -33.2982 -33.2552
   -33.1989 -33.1964 -33.1275 -33.1168 -32.8173 -32.7834 -32.7610 -32.7483
   -14.0845 -13.1564 -13.0625 -12.9181 -12.7338 -12.6242 -12.5969 -12.4656
   -12.4368 -12.2839 -12.2483 -12.1020 -12.0295 -11.8265 -11.5862 -11.5580
   -11.5037 -11.4743 -11.3977 -11.1996  -1.6696  -1.0388  -0.6627  -0.4469
    -0.2771  -0.1751  -0.0565  -0.0214   0.0404   0.2718   0.3091   0.3806
     0.4821   0.5274   0.6656   0.7696   0.7815   0.8531   0.9724   1.0792
     1.1903   1.2392   1.3162   1.3806   1.4458   1.5386   1.5739   1.6270
     1.7845   1.8790   1.9513   2.0230   2.0734   2.1041   2.1578   2.2026
     2.2456   2.2787   2.3301   2.3781   2.4412   2.5055   2.5470   2.6432
     2.6789   2.7542   2.7867   2.8595   2.9212   3.0678   3.1145   3.2033
     3.2724   3.3495   3.3931   3.5957   3.6254   3.6634   3.7203   3.7508
     6.1885   6.4882   6.7830   6.9773   7.1638   7.1956   7.3220   7.3875
     7.5591   7.6239   7.6700   7.7210   7.8012   7.8524   7.9170   7.9895
     8.0086   8.1087   8.1677   8.2690   8.3328   8.5172   8.5706   8.5983
     8.6360

          k =-0.0171 0.0143-0.0185 ( 20254 PWs)   bands (ev):

   -59.6763 -59.6200 -59.5541 -59.5256 -59.5203 -59.3530 -59.0878 -59.0832
   -33.8696 -33.8639 -33.6814 -33.6770 -33.6536 -33.6076 -33.4949 -33.4918
   -33.4550 -33.4519 -33.4192 -33.3980 -33.3860 -33.3785 -33.2982 -33.2552
   -33.1989 -33.1964 -33.1275 -33.1167 -32.8173 -32.7834 -32.7610 -32.7483
   -14.0845 -13.1563 -13.0645 -12.9154 -12.7318 -12.6306 -12.5938 -12.4639
   -12.4370 -12.2831 -12.2522 -12.1000 -12.0298 -11.8261 -11.5860 -11.5580
   -11.5040 -11.4743 -11.3977 -11.1996  -1.6691  -1.0386  -0.6715  -0.4361
    -0.2676  -0.1760  -0.0625  -0.0317   0.0490   0.2796   0.2991   0.3750
     0.4627   0.5430   0.6625   0.7576   0.8043   0.8458   0.9632   1.0988
     1.1900   1.2358   1.3233   1.3962   1.4564   1.4959   1.5478   1.6470
     1.7826   1.9163   1.9622   2.0179   2.0749   2.1202   2.1566   2.2038
     2.2446   2.2660   2.3630   2.3781   2.4207   2.4751   2.5435   2.6064
     2.6677   2.7587   2.7774   2.8919   2.9706   3.0203   3.1107   3.1997
     3.2794   3.3487   3.3913   3.6058   3.6178   3.6598   3.7256   3.7623
     6.1884   6.4892   6.7857   6.9779   7.1609   7.1869   7.3078   7.3991
     7.5510   7.6256   7.6896   7.7141   7.8009   7.8616   7.9025   7.9890
     8.0124   8.0941   8.1869   8.2763   8.3413   8.5154   8.5610   8.5975
     8.6416

          k = 0.0171-0.0143-0.0185 ( 20254 PWs)   bands (ev):

   -59.6763 -59.6200 -59.5541 -59.5256 -59.5203 -59.3530 -59.0878 -59.0832
   -33.8696 -33.8639 -33.6814 -33.6770 -33.6536 -33.6076 -33.4949 -33.4918
   -33.4550 -33.4520 -33.4192 -33.3980 -33.3860 -33.3785 -33.2982 -33.2552
   -33.1989 -33.1964 -33.1275 -33.1167 -32.8173 -32.7834 -32.7610 -32.7483
   -14.0845 -13.1562 -13.0641 -12.9158 -12.7323 -12.6302 -12.5937 -12.4640
   -12.4367 -12.2832 -12.2522 -12.0998 -12.0299 -11.8261 -11.5860 -11.5579
   -11.5040 -11.4743 -11.3977 -11.1997  -1.6691  -1.0383  -0.6719  -0.4361
    -0.2682  -0.1762  -0.0630  -0.0319   0.0502   0.2805   0.2993   0.3749
     0.4633   0.5427   0.6629   0.7562   0.8041   0.8442   0.9623   1.1007
     1.1908   1.2359   1.3235   1.3965   1.4567   1.4955   1.5471   1.6473
     1.7823   1.9148   1.9632   2.0177   2.0750   2.1207   2.1568   2.2055
     2.2446   2.2661   2.3618   2.3777   2.4200   2.4755   2.5434   2.6070
     2.6680   2.7586   2.7772   2.8916   2.9712   3.0191   3.1102   3.2009
     3.2789   3.3488   3.3919   3.6051   3.6191   3.6587   3.7268   3.7609
     6.1883   6.4893   6.7860   6.9780   7.1609   7.1864   7.3067   7.4007
     7.5498   7.6254   7.6895   7.7145   7.8019   7.8610   7.9035   7.9874
     8.0136   8.0951   8.1863   8.2760   8.3403   8.5160   8.5609   8.5971
     8.6427

          k =-0.0171-0.0429 0.0185 ( 20251 PWs)   bands (ev):

   -59.6763 -59.6199 -59.5541 -59.5255 -59.5202 -59.3530 -59.0878 -59.0831
   -33.8708 -33.8650 -33.6827 -33.6777 -33.6542 -33.6088 -33.4949 -33.4917
   -33.4560 -33.4531 -33.4191 -33.3990 -33.3863 -33.3786 -33.2982 -33.2552
   -33.1988 -33.1963 -33.1275 -33.1167 -32.8173 -32.7834 -32.7610 -32.7483
   -13.9553 -13.1534 -13.0475 -12.8744 -12.7149 -12.6371 -12.5853 -12.4756
   -12.4342 -12.3134 -12.2491 -12.0969 -12.0255 -11.7741 -11.5858 -11.5339
   -11.5042 -11.4478 -11.3722 -11.1807  -1.7715  -1.0589  -0.8324  -0.4519
    -0.3440  -0.2791  -0.2061  -0.0848   0.0160   0.1349   0.2677   0.3419
     0.4151   0.4522   0.5086   0.5496   0.6598   0.7061   0.7468   0.8058
     0.8838   0.9788   1.0055   1.0676   1.1997   1.3062   1.4150   1.4783
     1.6310   1.7039   1.7752   1.8179   1.8819   1.9966   2.1097   2.1529
     2.2292   2.3029   2.3323   2.4975   2.5512   2.6058   2.7482   2.7852
     2.8762   2.9124   2.9868   3.0510   3.1106   3.2507   3.2958   3.3871
     3.4856   3.5066   3.6321   3.6960   3.7621   3.8458   3.8820   4.1288
     6.2177   6.4857   6.7590   6.8194   7.0958   7.2405   7.3363   7.3984
     7.5277   7.6288   7.6737   7.7202   7.8653   7.9402   7.9761   8.0231
     8.0791   8.0951   8.1756   8.2496   8.3691   8.5441   8.5760   8.6317
     8.7534

          k =-0.0171 0.0429-0.0185 ( 20251 PWs)   bands (ev):

   -59.6763 -59.6199 -59.5541 -59.5255 -59.5202 -59.3530 -59.0878 -59.0831
   -33.8708 -33.8650 -33.6827 -33.6777 -33.6542 -33.6087 -33.4949 -33.4917
   -33.4560 -33.4531 -33.4191 -33.3990 -33.3863 -33.3786 -33.2982 -33.2552
   -33.1989 -33.1963 -33.1275 -33.1167 -32.8173 -32.7834 -32.7610 -32.7483
   -13.9553 -13.1542 -13.0478 -12.8708 -12.7189 -12.6355 -12.5854 -12.4751
   -12.4329 -12.3153 -12.2504 -12.0954 -12.0257 -11.7739 -11.5856 -11.5338
   -11.5044 -11.4478 -11.3722 -11.1807  -1.7711  -1.0590  -0.8338  -0.4486
    -0.3345  -0.2862  -0.2076  -0.0972   0.0270   0.1370   0.2668   0.3260
     0.4116   0.4605   0.5139   0.5708   0.6395   0.6719   0.7465   0.8458
     0.9146   0.9442   0.9908   1.0794   1.1908   1.3401   1.4247   1.4623
     1.5658   1.7375   1.7527   1.8776   1.9157   1.9938   2.0696   2.1629
     2.2155   2.3000   2.3315   2.4849   2.5518   2.5942   2.7543   2.7959
     2.8824   2.9058   2.9978   3.0483   3.1404   3.2310   3.2722   3.3827
     3.4833   3.4967   3.6170   3.7198   3.7768   3.8471   3.8798   4.1315
     6.2180   6.4886   6.7582   6.8211   7.0950   7.2294   7.3256   7.4095
     7.5250   7.6288   7.6930   7.7042   7.8594   7.9402   7.9815   8.0337
     8.0706   8.0838   8.1890   8.2639   8.3726   8.5341   8.5820   8.6296
     8.7506

          k = 0.0171-0.0429-0.0185 ( 20251 PWs)   bands (ev):

   -59.6763 -59.6199 -59.5541 -59.5255 -59.5202 -59.3530 -59.0878 -59.0831
   -33.8708 -33.8650 -33.6827 -33.6777 -33.6542 -33.6087 -33.4949 -33.4917
   -33.4560 -33.4531 -33.4191 -33.3990 -33.3863 -33.3786 -33.2982 -33.2552
   -33.1988 -33.1963 -33.1275 -33.1167 -32.8173 -32.7834 -32.7610 -32.7483
   -13.9553 -13.1541 -13.0475 -12.8715 -12.7192 -12.6350 -12.5852 -12.4754
   -12.4327 -12.3155 -12.2504 -12.0952 -12.0259 -11.7739 -11.5856 -11.5337
   -11.5044 -11.4478 -11.3722 -11.1807  -1.7712  -1.0589  -0.8339  -0.4485
    -0.3347  -0.2865  -0.2076  -0.0980   0.0283   0.1376   0.2665   0.3259
     0.4120   0.4609   0.5137   0.5692   0.6401   0.6721   0.7448   0.8468
     0.9146   0.9452   0.9902   1.0791   1.1910   1.3406   1.4249   1.4627
     1.5648   1.7376   1.7529   1.8764   1.9158   1.9944   2.0700   2.1624
     2.2166   2.2970   2.3333   2.4851   2.5503   2.5955   2.7538   2.7962
     2.8830   2.9057   2.9984   3.0479   3.1411   3.2305   3.2723   3.3825
     3.4828   3.4973   3.6173   3.7194   3.7762   3.8467   3.8801   4.1314
     6.2180   6.4886   6.7592   6.8202   7.0946   7.2297   7.3248   7.4103
     7.5242   7.6291   7.6930   7.7047   7.8598   7.9401   7.9818   8.0335
     8.0693   8.0853   8.1890   8.2639   8.3717   8.5356   8.5817   8.6298
     8.7499

     the Fermi energy is     6.3176 ev

!    total energy              =   -2587.12027977 Ry
     Harris-Foulkes estimate   =   -2587.12027978 Ry
     estimated scf accuracy    <          6.3E-09 Ry

     total all-electron energy =    -18686.971071 Ry

     The total energy is the sum of the following terms:

     one-electron contribution =   -1196.59279301 Ry
     hartree contribution      =     698.75677011 Ry
     xc contribution           =    -344.62361778 Ry
     ewald contribution        =    -980.07648353 Ry
     one-center paw contrib.   =    -764.58460391 Ry
     smearing contrib. (-TS)   =       0.00044834 Ry

     total magnetization       =     1.06 Bohr mag/cell
     absolute magnetization    =     3.86 Bohr mag/cell

     convergence has been achieved in  21 iterations

     Forces acting on atoms (Ry/au):

     atom    1 type  2   force =     0.00006876    0.00026559    0.00006828
     atom    2 type  2   force =    -0.00028294   -0.00000737   -0.00005224
     atom    3 type  2   force =     0.00055812    0.00004895   -0.00022129
     atom    4 type  2   force =    -0.00047681   -0.00048759   -0.00026297
     atom    5 type  1   force =     0.00021504    0.00004864    0.00055108
     atom    6 type  1   force =    -0.00013791   -0.00017687    0.00019811
     atom    7 type  1   force =     0.00026134    0.00010624   -0.00009439
     atom    8 type  1   force =    -0.00026567    0.00002334   -0.00014010
     atom    9 type  1   force =     0.00008971    0.00002225    0.00029735
     atom   10 type  1   force =    -0.00014450   -0.00016357   -0.00023876
     atom   11 type  1   force =    -0.00001369    0.00001273    0.00049710
     atom   12 type  1   force =    -0.00029937    0.00020292    0.00045871
     atom   13 type  1   force =    -0.00007088   -0.00014272   -0.00050454
     atom   14 type  1   force =     0.00030256    0.00015944   -0.00010891
     atom   15 type  2   force =     0.00011728   -0.00035128    0.00001729
     atom   16 type  2   force =     0.00027183    0.00021216    0.00035113
     atom   17 type  2   force =    -0.00013918   -0.00025641   -0.00054507
     atom   18 type  2   force =    -0.00031216   -0.00018350   -0.00045351
     atom   19 type  1   force =     0.00012015    0.00085666    0.00024083
     atom   20 type  1   force =     0.00061886    0.00000734   -0.00060311
     atom   21 type  1   force =     0.00028342   -0.00054343    0.00013357
     atom   22 type  1   force =    -0.00062734   -0.00006868    0.00043625
     atom   23 type  1   force =    -0.00026098   -0.00008057   -0.00003382
     atom   24 type  1   force =    -0.00036696   -0.00001805    0.00016837
     atom   25 type  1   force =    -0.00011866   -0.00031862   -0.00021329
     atom   26 type  1   force =    -0.00010167    0.00002576    0.00000400
     atom   27 type  1   force =     0.00059757    0.00048227   -0.00002316
     atom   28 type  1   force =     0.00015759    0.00016465    0.00008879
     atom   29 type  3   force =    -0.00004354    0.00015970   -0.00001571

     Total force =     0.002757     Total SCF correction =     0.000266

     bfgs converged in  49 scf cycles and  48 bfgs steps
     (criteria: energy < 0.10E-03, force < 0.10E-02)

     End of BFGS Geometry Optimization

     Final energy   =   -2587.1202797725 Ry
Begin final coordinates

ATOMIC_POSITIONS (crystal)
v        0.146202953   0.089930362   0.474050938
v        0.850924206   0.118987429   0.473769539
v        0.651552236   0.921301645   0.722043909
v        0.353922162   0.860627267   0.724861741
o       -0.005496014   0.018811944   0.973467139
o        0.493856996   1.050621973   0.672817864
o        0.154654121   0.427252782   0.974270435
o        0.847017382   0.473540023   0.973925474
o        0.633423516   0.578201656   0.712148537
o        0.382106885   0.521908353   0.658525702
o        0.190141680  -0.032095348   0.734644206
o        0.819033324   0.002695794   0.726570072
o        0.663101420   1.033338035   0.974224187
o        0.357849318   0.882058099   0.974520567
v        0.138879155   0.082082108  -0.025865495
v        0.837979066   0.130531703  -0.026208120
v        0.651675632   0.921528792   0.226417407
v        0.353940580   0.860301300   0.224316133
o        0.001104793  -0.012375825   0.473887416
o        0.493830274   1.050139245   0.276321109
o        0.142539204   0.434600027   0.473876335
o        0.864572993   0.461139494   0.473219614
o        0.633858077   0.578345748   0.235749822
o        0.382345591   0.521615872   0.290470595
o        0.190118621  -0.031940076   0.213751041
o        0.819123431   0.002745337   0.221158041
o        0.680785888   1.051530347   0.474146911
o        0.318766203   1.025353206   0.474385058
al       0.442190310   0.277222707   0.474533823
End final coordinates



     Writing output data file crystal.save
 
     init_run     :    155.55s CPU    156.15s WALL (       1 calls)
     electrons    : 495622.93s CPU 499443.24s WALL (      49 calls)
     update_pot   :    641.89s CPU    642.29s WALL (      48 calls)
     forces       :   3435.57s CPU   3443.53s WALL (      49 calls)

     Called by init_run:
     wfcinit      :    132.89s CPU    133.40s WALL (       1 calls)
     potinit      :      6.65s CPU      6.69s WALL (       1 calls)

     Called by electrons:
     c_bands      : 382536.66s CPU 385891.75s WALL (    1333 calls)
     sum_band     :  93094.64s CPU  93508.04s WALL (    1333 calls)
     v_of_rho     :   1721.91s CPU   1742.15s WALL (    1368 calls)
     newd         :  14509.13s CPU  14523.05s WALL (    1368 calls)
     mix_rho      :   1348.99s CPU   1349.80s WALL (    1333 calls)

     Called by c_bands:
     init_us_2    :   1215.84s CPU   1216.81s WALL (   86912 calls)
     cegterg      : 377705.00s CPU 380463.28s WALL (   42656 calls)

     Called by *egterg:
     h_psi        : 303366.80s CPU 303562.14s WALL (  164993 calls)
     s_psi        :  15699.09s CPU  15702.06s WALL (  164993 calls)
     g_psi        :    687.11s CPU    687.23s WALL (  122305 calls)
     cdiaghg      :  11756.12s CPU  11759.62s WALL (  162977 calls)

     Called by h_psi:
     add_vuspsi   :  15718.38s CPU  15721.85s WALL (  164993 calls)

     General routines
     calbec       :  23996.61s CPU  24004.92s WALL (  209217 calls)
     fft          :   2367.95s CPU   2374.05s WALL (   42961 calls)
     ffts         :     52.29s CPU     52.34s WALL (    5402 calls)
     fftw         : 288845.63s CPU 289023.32s WALL (33179554 calls)
     interpolate  :    358.24s CPU    358.50s WALL (    5402 calls)
     davcio       :      3.53s CPU    925.96s WALL (  129568 calls)
 
     Parallel routines
     fft_scatter  :  22695.06s CPU  22799.42s WALL (33227917 calls)
 
     PAW routines
     PAW_pot      :   2702.82s CPU   2703.34s WALL (    1368 calls)
     PAW_ddot     :    927.44s CPU    927.69s WALL (   45453 calls)
 
     PWSCF        :     5d   18h59m CPU        5d   20h 3m WALL

 
   This run was terminated on:  14:33:23  29May2013            

=------------------------------------------------------------------------------=
   JOB DONE.
=------------------------------------------------------------------------------=
