
     Program PWSCF v.4.3.2      starts on 23May2013 at 18:29:15 

     This program is part of the open-source Quantum ESPRESSO suite
     for quantum simulation of materials; please cite
         "P. Giannozzi et al., J. Phys.:Condens. Matter 21 395502 (2009);
          URL http://www.quantum-espresso.org", 
     in publications or presentations arising from this work. More details at
     http://www.quantum-espresso.org/wiki/index.php/Citing_Quantum-ESPRESSO

     Parallel version (MPI), running on     4 processors
     R & G space division:  proc/pool =    4

     Current dimensions of program PWSCF are:
     Max number of different atomic species (ntypx) = 10
     Max number of k-points (npk) =  40000
     Max angular momentum in pseudopotentials (lmaxx) =  3
     Waiting for input...
     Reading input from stdin
Warning: card  &CELL ignored
Warning: card  / ignored
               file o.UPF: wavefunction(s)  2P renormalized
               file v.UPF: wavefunction(s)  3P 3D renormalized

     Subspace diagonalization in iterative solution of the eigenvalue problem:
     a serial algorithm will be used

 
     Parallelization info
     --------------------
     sticks:   dense  smooth     PW     G-vecs:    dense   smooth      PW
     Min        2284     916    247               160073    40512    5699
     Max        2286     917    248               160074    40535    5702
     Sum        9139    3665    991               640295   162099   22801
 

     Title: 
     crystal                                                                    


     bravais-lattice index     =            0
     lattice parameter (alat)  =       1.0000  a.u.
     unit-cell volume          =    2580.0762 (a.u.)^3
     number of atoms/cell      =           29
     number of atomic types    =            3
     number of electrons       =       227.00
     number of Kohn-Sham states=          137
     kinetic-energy cutoff     =      60.0000  Ry
     charge density cutoff     =     600.0000  Ry
     convergence threshold     =      1.0E-06
     mixing beta               =       0.7000
     number of iterations used =            8  plain     mixing
     Exchange-correlation      =  SLA  PW   PBX  PBC ( 1 4 3 4 0)
     EXX-fraction              =        0.00
     nstep                     =           50


     celldm(1)=   1.000000  celldm(2)=   0.000000  celldm(3)=   0.000000
     celldm(4)=   0.000000  celldm(5)=   0.000000  celldm(6)=   0.000000

     crystal axes: (cart. coord. in units of alat)
               a(1) = (  21.897630   0.000000   0.000000 )  
               a(2) = (   0.000000   8.740345   0.000000 )  
               a(3) = (   0.000000   0.000000  13.480526 )  

     reciprocal axes: (cart. coord. in units 2 pi/alat)
               b(1) = (  0.045667  0.000000  0.000000 )  
               b(2) = (  0.000000  0.114412  0.000000 )  
               b(3) = (  0.000000  0.000000  0.074181 )  


     PseudoPot. # 1 for  O read from file:
     ./o.UPF
     MD5 check sum: 41b4c06c3d5f255fcb8c86fb23a9ad16
     Pseudo is Projector augmented-wave + core cor, Zval =  6.0
     Generated using "atomic" code by A. Dal Corso  (Quantum ESPRESSO distribution)
     Shape of augmentation charge: BESSEL
     Using radial grid of 1095 points,  4 beta functions with: 
                l(1) =   0
                l(2) =   0
                l(3) =   1
                l(4) =   1
     Q(r) pseudized with 0 coefficients 


     PseudoPot. # 2 for  V read from file:
     ./v.UPF
     MD5 check sum: 82b33432f4c77c04e82c5e92406ad013
     Pseudo is Projector augmented-wave + core cor, Zval = 13.0
     Generated using "atomic" code by A. Dal Corso  (Quantum ESPRESSO distribution)
     Shape of augmentation charge: PSQ
     Using radial grid of 1181 points,  6 beta functions with: 
                l(1) =   0
                l(2) =   0
                l(3) =   1
                l(4) =   1
                l(5) =   2
                l(6) =   2
     Q(r) pseudized with 0 coefficients 


     PseudoPot. # 3 for Li read from file:
     ./li.UPF
     MD5 check sum: 541fda9168ddca09f41b8d7b2072ec42
     Pseudo is Projector augmented-wave, Zval =  3.0
     Generated using "atomic" code by A. Dal Corso  (Quantum ESPRESSO distribution)
     Shape of augmentation charge: PSQ
     Using radial grid of 1017 points,  4 beta functions with: 
                l(1) =   0
                l(2) =   0
                l(3) =   1
                l(4) =   1
     Q(r) pseudized with 0 coefficients 


     atomic species   valence    mass     pseudopotential
        o              6.00    15.99940      O( 1.00)
        v             13.00    50.94150      V( 1.00)
        li             3.00    26.98164     Li( 1.00)

     Starting magnetic structure 
     atomic species   magnetization
        o            0.000
        v            0.000
        li           1.000

     No symmetry found

   Cartesian axes

     site n.     atom                  positions (alat units)
         1           v   tau(   1) = (   3.2423169   0.9713831   6.4041474  )
         2           v   tau(   2) = (  18.6553126   0.9713831   6.4041474  )
         3           v   tau(   3) = (  14.1911317   7.7689621   9.7742789  )
         4           v   tau(   4) = (   7.7064979   7.7689621   9.7742789  )
         5           o   tau(   5) = (   0.0000000   0.0063699  13.1426918  )
         6           o   tau(   6) = (  10.9488148   8.7339753   9.7725603  )
         7           o   tau(   7) = (   3.1491788   3.9762946  13.1422799  )
         8           o   tau(   8) = (  18.7484507   3.9762946  13.1422799  )
         9           o   tau(   9) = (  14.0979936   4.7640506   9.7721484  )
        10           o   tau(  10) = (   7.7996359   4.7640506   9.7721484  )
        11           o   tau(  11) = (   3.9746020   0.0563391   9.7741276  )
        12           o   tau(  12) = (  17.9230275   0.0563391   9.7741276  )
        13           o   tau(  13) = (  14.9234167   8.6840061  13.1442591  )
        14           o   tau(  14) = (   6.9742128   8.6840061  13.1442591  )
        15           v   tau(  15) = (   3.2423169   0.9713831  -0.3361157  )
        16           v   tau(  16) = (  18.6553126   0.9713831  -0.3361157  )
        17           v   tau(  17) = (  14.1911317   7.7689621   3.0340159  )
        18           v   tau(  18) = (   7.7064979   7.7689621   3.0340159  )
        19           o   tau(  19) = (   0.0000000   0.0063699   6.4024288  )
        20           o   tau(  20) = (  10.9488148   8.7339753   3.0322972  )
        21           o   tau(  21) = (   3.1491788   3.9762946   6.4020168  )
        22           o   tau(  22) = (  18.7484507   3.9762946   6.4020168  )
        23           o   tau(  23) = (  14.0979936   4.7640506   3.0318853  )
        24           o   tau(  24) = (   7.7996359   4.7640506   3.0318853  )
        25           o   tau(  25) = (   3.9746020   0.0563391   3.0338645  )
        26           o   tau(  26) = (  17.9230275   0.0563391   3.0338645  )
        27           o   tau(  27) = (  14.9234167   8.6840061   6.4039961  )
        28           o   tau(  28) = (   6.9742128   8.6840061   6.4039961  )
        29           li  tau(  29) = (  10.7298385   2.6221036   6.0662368  )

     number of k points=    32  Marzari-Vanderbilt smearing, width (Ry)=  0.0100
                       cart. coord. in units 2pi/alat
        k(    1) = (   0.0057084   0.0143015   0.0185453), wk =   0.0625000
        k(    2) = (   0.0057084   0.0429045   0.0185453), wk =   0.0625000
        k(    3) = (   0.0171251   0.0143015   0.0185453), wk =   0.0625000
        k(    4) = (   0.0171251   0.0429045   0.0185453), wk =   0.0625000
        k(    5) = (  -0.0057084  -0.0143015   0.0185453), wk =   0.0625000
        k(    6) = (  -0.0057084   0.0143015  -0.0185453), wk =   0.0625000
        k(    7) = (   0.0057084  -0.0143015  -0.0185453), wk =   0.0625000
        k(    8) = (  -0.0057084  -0.0429045   0.0185453), wk =   0.0625000
        k(    9) = (  -0.0057084   0.0429045  -0.0185453), wk =   0.0625000
        k(   10) = (   0.0057084  -0.0429045  -0.0185453), wk =   0.0625000
        k(   11) = (  -0.0171251  -0.0143015   0.0185453), wk =   0.0625000
        k(   12) = (  -0.0171251   0.0143015  -0.0185453), wk =   0.0625000
        k(   13) = (   0.0171251  -0.0143015  -0.0185453), wk =   0.0625000
        k(   14) = (  -0.0171251  -0.0429045   0.0185453), wk =   0.0625000
        k(   15) = (  -0.0171251   0.0429045  -0.0185453), wk =   0.0625000
        k(   16) = (   0.0171251  -0.0429045  -0.0185453), wk =   0.0625000
        k(   17) = (   0.0057084   0.0143015   0.0185453), wk =   0.0625000
        k(   18) = (   0.0057084   0.0429045   0.0185453), wk =   0.0625000
        k(   19) = (   0.0171251   0.0143015   0.0185453), wk =   0.0625000
        k(   20) = (   0.0171251   0.0429045   0.0185453), wk =   0.0625000
        k(   21) = (  -0.0057084  -0.0143015   0.0185453), wk =   0.0625000
        k(   22) = (  -0.0057084   0.0143015  -0.0185453), wk =   0.0625000
        k(   23) = (   0.0057084  -0.0143015  -0.0185453), wk =   0.0625000
        k(   24) = (  -0.0057084  -0.0429045   0.0185453), wk =   0.0625000
        k(   25) = (  -0.0057084   0.0429045  -0.0185453), wk =   0.0625000
        k(   26) = (   0.0057084  -0.0429045  -0.0185453), wk =   0.0625000
        k(   27) = (  -0.0171251  -0.0143015   0.0185453), wk =   0.0625000
        k(   28) = (  -0.0171251   0.0143015  -0.0185453), wk =   0.0625000
        k(   29) = (   0.0171251  -0.0143015  -0.0185453), wk =   0.0625000
        k(   30) = (  -0.0171251  -0.0429045   0.0185453), wk =   0.0625000
        k(   31) = (  -0.0171251   0.0429045  -0.0185453), wk =   0.0625000
        k(   32) = (   0.0171251  -0.0429045  -0.0185453), wk =   0.0625000

     Dense  grid:   640295 G-vectors     FFT dimensions: ( 180,  72, 108)

     Smooth grid:   162099 G-vectors     FFT dimensions: ( 108,  45,  72)

     Largest allocated arrays     est. size (Mb)     dimensions
        Kohn-Sham Wavefunctions        10.63 Mb     (   5086,  137)
        NL pseudopotentials            24.21 Mb     (   5086,  312)
        Each V/rho on FFT grid         10.68 Mb     ( 349920,   2)
        Each G-vector array             1.22 Mb     ( 160074)
        G-vector shells                 0.49 Mb     (  64229)
     Largest temporary arrays     est. size (Mb)     dimensions
        Auxiliary wavefunctions        42.53 Mb     (   5086,  548)
        Each subspace H/S matrix        4.58 Mb     ( 548, 548)
        Each <psi_i|beta_j> matrix      0.65 Mb     (    312,  137)
        Arrays for rho mixing          42.71 Mb     ( 349920,   8)

     Check: negative/imaginary core charge=   -0.000005    0.000000

     Initial potential from superposition of free atoms

     starting charge  226.98809, renormalised to  227.00000
     Starting wfc are  162 atomic wfcs
     Checking if some PAW data can be deallocated... 

     total cpu time spent up to now is      154.2 secs

     per-process dynamical memory:   159.8 Mb

     Self-consistent Calculation

     iteration #  1     ecut=    60.00 Ry     beta=0.70
     Davidson diagonalization with overlap
     ethr =  1.00E-02,  avg # of iterations =  3.0

     total cpu time spent up to now is      509.7 secs

     total energy              =   -2551.48775429 Ry
     Harris-Foulkes estimate   =   -2563.30426701 Ry
     estimated scf accuracy    <      17.17673147 Ry

     total magnetization       =     0.13 Bohr mag/cell
     absolute magnetization    =     0.74 Bohr mag/cell

     iteration #  2     ecut=    60.00 Ry     beta=0.70
     Davidson diagonalization with overlap
     ethr =  7.57E-03,  avg # of iterations =  4.0

     total cpu time spent up to now is     1082.6 secs

     total energy              =   -2530.27738209 Ry
     Harris-Foulkes estimate   =   -2601.13071239 Ry
     estimated scf accuracy    <     329.78139288 Ry

     total magnetization       =     0.18 Bohr mag/cell
     absolute magnetization    =     0.24 Bohr mag/cell

     iteration #  3     ecut=    60.00 Ry     beta=0.70
     Davidson diagonalization with overlap
     ethr =  7.57E-03,  avg # of iterations =  4.0

     total cpu time spent up to now is     1649.9 secs

     total energy              =   -2561.77195903 Ry
     Harris-Foulkes estimate   =   -2563.93658012 Ry
     estimated scf accuracy    <       6.82225222 Ry

     total magnetization       =     0.00 Bohr mag/cell
     absolute magnetization    =     0.14 Bohr mag/cell

     iteration #  4     ecut=    60.00 Ry     beta=0.70
     Davidson diagonalization with overlap
     ethr =  3.01E-03,  avg # of iterations =  4.5

     total cpu time spent up to now is     2054.5 secs

     total energy              =   -2562.41236350 Ry
     Harris-Foulkes estimate   =   -2563.05651556 Ry
     estimated scf accuracy    <       2.47950057 Ry

     total magnetization       =     0.19 Bohr mag/cell
     absolute magnetization    =     0.27 Bohr mag/cell

     iteration #  5     ecut=    60.00 Ry     beta=0.70
     Davidson diagonalization with overlap
     ethr =  1.09E-03,  avg # of iterations =  7.8

     total cpu time spent up to now is     2437.9 secs

     total energy              =   -2562.47986945 Ry
     Harris-Foulkes estimate   =   -2562.73339365 Ry
     estimated scf accuracy    <       1.38931838 Ry

     total magnetization       =     0.01 Bohr mag/cell
     absolute magnetization    =     0.11 Bohr mag/cell

     iteration #  6     ecut=    60.00 Ry     beta=0.70
     Davidson diagonalization with overlap
     ethr =  6.12E-04,  avg # of iterations =  2.9

     total cpu time spent up to now is     2772.5 secs

     total energy              =   -2562.50006109 Ry
     Harris-Foulkes estimate   =   -2562.64457425 Ry
     estimated scf accuracy    <       0.61728237 Ry

     total magnetization       =     0.22 Bohr mag/cell
     absolute magnetization    =     0.28 Bohr mag/cell

     iteration #  7     ecut=    60.00 Ry     beta=0.70
     Davidson diagonalization with overlap
     ethr =  2.72E-04,  avg # of iterations =  4.6

     total cpu time spent up to now is     3177.2 secs

     total energy              =   -2562.51714837 Ry
     Harris-Foulkes estimate   =   -2562.65062949 Ry
     estimated scf accuracy    <       0.70648687 Ry

     total magnetization       =     0.05 Bohr mag/cell
     absolute magnetization    =     0.12 Bohr mag/cell

     iteration #  8     ecut=    60.00 Ry     beta=0.70
     Davidson diagonalization with overlap
     ethr =  2.72E-04,  avg # of iterations =  1.3

     total cpu time spent up to now is     3501.0 secs

     total energy              =   -2562.57530276 Ry
     Harris-Foulkes estimate   =   -2562.60032958 Ry
     estimated scf accuracy    <       0.12471454 Ry

     total magnetization       =     0.34 Bohr mag/cell
     absolute magnetization    =     0.38 Bohr mag/cell

     iteration #  9     ecut=    60.00 Ry     beta=0.70
     Davidson diagonalization with overlap
     ethr =  5.49E-05,  avg # of iterations =  4.9

     total cpu time spent up to now is     3901.0 secs

     total energy              =   -2562.58661783 Ry
     Harris-Foulkes estimate   =   -2562.59672312 Ry
     estimated scf accuracy    <       0.08692945 Ry

     total magnetization       =     0.43 Bohr mag/cell
     absolute magnetization    =     0.47 Bohr mag/cell

     iteration # 10     ecut=    60.00 Ry     beta=0.70
     Davidson diagonalization with overlap
     ethr =  3.83E-05,  avg # of iterations =  1.0

     total cpu time spent up to now is     4223.7 secs

     total energy              =   -2562.58340989 Ry
     Harris-Foulkes estimate   =   -2562.59463662 Ry
     estimated scf accuracy    <       0.08251904 Ry

     total magnetization       =     0.57 Bohr mag/cell
     absolute magnetization    =     0.62 Bohr mag/cell

     iteration # 11     ecut=    60.00 Ry     beta=0.70
     Davidson diagonalization with overlap
     ethr =  3.64E-05,  avg # of iterations =  1.0

     total cpu time spent up to now is     4546.2 secs

     total energy              =   -2562.58665741 Ry
     Harris-Foulkes estimate   =   -2562.58956220 Ry
     estimated scf accuracy    <       0.02133017 Ry

     total magnetization       =     0.68 Bohr mag/cell
     absolute magnetization    =     0.74 Bohr mag/cell

     iteration # 12     ecut=    60.00 Ry     beta=0.70
     Davidson diagonalization with overlap
     ethr =  9.40E-06,  avg # of iterations =  3.0

     total cpu time spent up to now is     4882.3 secs

     total energy              =   -2562.58867629 Ry
     Harris-Foulkes estimate   =   -2562.58932639 Ry
     estimated scf accuracy    <       0.01335268 Ry

     total magnetization       =     0.76 Bohr mag/cell
     absolute magnetization    =     0.83 Bohr mag/cell

     iteration # 13     ecut=    60.00 Ry     beta=0.70
     Davidson diagonalization with overlap
     ethr =  5.88E-06,  avg # of iterations =  3.4

     total cpu time spent up to now is     5219.3 secs

     total energy              =   -2562.58975563 Ry
     Harris-Foulkes estimate   =   -2562.59061089 Ry
     estimated scf accuracy    <       0.00847174 Ry

     total magnetization       =     0.88 Bohr mag/cell
     absolute magnetization    =     1.00 Bohr mag/cell

     iteration # 14     ecut=    60.00 Ry     beta=0.70
     Davidson diagonalization with overlap
     ethr =  3.73E-06,  avg # of iterations =  3.0

     total cpu time spent up to now is     5552.0 secs

     total energy              =   -2562.59093477 Ry
     Harris-Foulkes estimate   =   -2562.59046173 Ry
     estimated scf accuracy    <       0.00239248 Ry

     total magnetization       =     0.88 Bohr mag/cell
     absolute magnetization    =     1.02 Bohr mag/cell

     iteration # 15     ecut=    60.00 Ry     beta=0.70
     Davidson diagonalization with overlap
     ethr =  1.05E-06,  avg # of iterations =  4.2

     total cpu time spent up to now is     5917.8 secs

     total energy              =   -2562.59119792 Ry
     Harris-Foulkes estimate   =   -2562.59154581 Ry
     estimated scf accuracy    <       0.00427719 Ry

     total magnetization       =     0.94 Bohr mag/cell
     absolute magnetization    =     1.14 Bohr mag/cell

     iteration # 16     ecut=    60.00 Ry     beta=0.70
     Davidson diagonalization with overlap
     ethr =  1.05E-06,  avg # of iterations =  4.3

     total cpu time spent up to now is     6303.1 secs

     total energy              =   -2562.59124152 Ry
     Harris-Foulkes estimate   =   -2562.59212077 Ry
     estimated scf accuracy    <       0.00707284 Ry

     total magnetization       =     0.97 Bohr mag/cell
     absolute magnetization    =     1.22 Bohr mag/cell

     iteration # 17     ecut=    60.00 Ry     beta=0.70
     Davidson diagonalization with overlap
     ethr =  1.05E-06,  avg # of iterations =  3.2

     total cpu time spent up to now is     6682.7 secs

     total energy              =   -2562.59143890 Ry
     Harris-Foulkes estimate   =   -2562.59197430 Ry
     estimated scf accuracy    <       0.00282539 Ry

     total magnetization       =     0.98 Bohr mag/cell
     absolute magnetization    =     1.33 Bohr mag/cell

     iteration # 18     ecut=    60.00 Ry     beta=0.70
     Davidson diagonalization with overlap
     ethr =  1.05E-06,  avg # of iterations =  3.2

     total cpu time spent up to now is     7020.9 secs

     total energy              =   -2562.59146695 Ry
     Harris-Foulkes estimate   =   -2562.59186966 Ry
     estimated scf accuracy    <       0.00142804 Ry

     total magnetization       =     0.95 Bohr mag/cell
     absolute magnetization    =     1.32 Bohr mag/cell

     iteration # 19     ecut=    60.00 Ry     beta=0.70
     Davidson diagonalization with overlap
     ethr =  6.29E-07,  avg # of iterations =  3.2

     total cpu time spent up to now is     7396.7 secs

     total energy              =   -2562.59149801 Ry
     Harris-Foulkes estimate   =   -2562.59196171 Ry
     estimated scf accuracy    <       0.00323467 Ry

     total magnetization       =     0.96 Bohr mag/cell
     absolute magnetization    =     1.36 Bohr mag/cell

     iteration # 20     ecut=    60.00 Ry     beta=0.70
     Davidson diagonalization with overlap
     ethr =  6.29E-07,  avg # of iterations =  3.0

     total cpu time spent up to now is     7746.1 secs

     total energy              =   -2562.59159965 Ry
     Harris-Foulkes estimate   =   -2562.59178338 Ry
     estimated scf accuracy    <       0.00075632 Ry

     total magnetization       =     0.96 Bohr mag/cell
     absolute magnetization    =     1.34 Bohr mag/cell

     iteration # 21     ecut=    60.00 Ry     beta=0.70
     Davidson diagonalization with overlap
     ethr =  3.33E-07,  avg # of iterations =  3.1

     total cpu time spent up to now is     8116.6 secs

     total energy              =   -2562.59150028 Ry
     Harris-Foulkes estimate   =   -2562.59201146 Ry
     estimated scf accuracy    <       0.00384590 Ry

     total magnetization       =     0.93 Bohr mag/cell
     absolute magnetization    =     1.31 Bohr mag/cell

     iteration # 22     ecut=    60.00 Ry     beta=0.70
     Davidson diagonalization with overlap
     ethr =  3.33E-07,  avg # of iterations =  3.0

     total cpu time spent up to now is     8498.4 secs

     total energy              =   -2562.59167553 Ry
     Harris-Foulkes estimate   =   -2562.59183940 Ry
     estimated scf accuracy    <       0.00090461 Ry

     total magnetization       =     0.95 Bohr mag/cell
     absolute magnetization    =     1.32 Bohr mag/cell

     iteration # 23     ecut=    60.00 Ry     beta=0.70
     Davidson diagonalization with overlap
     ethr =  3.33E-07,  avg # of iterations =  1.8

     total cpu time spent up to now is     8824.5 secs

     total energy              =   -2562.59173885 Ry
     Harris-Foulkes estimate   =   -2562.59175214 Ry
     estimated scf accuracy    <       0.00006339 Ry

     total magnetization       =     0.96 Bohr mag/cell
     absolute magnetization    =     1.33 Bohr mag/cell

     iteration # 24     ecut=    60.00 Ry     beta=0.70
     Davidson diagonalization with overlap
     ethr =  2.79E-08,  avg # of iterations =  3.0

     total cpu time spent up to now is     9234.4 secs

     total energy              =   -2562.59175050 Ry
     Harris-Foulkes estimate   =   -2562.59176712 Ry
     estimated scf accuracy    <       0.00008840 Ry

     total magnetization       =     0.96 Bohr mag/cell
     absolute magnetization    =     1.34 Bohr mag/cell

     iteration # 25     ecut=    60.00 Ry     beta=0.70
     Davidson diagonalization with overlap
     ethr =  2.79E-08,  avg # of iterations =  2.7

     total cpu time spent up to now is     9572.4 secs

     total energy              =   -2562.59175782 Ry
     Harris-Foulkes estimate   =   -2562.59176266 Ry
     estimated scf accuracy    <       0.00002409 Ry

     total magnetization       =     0.96 Bohr mag/cell
     absolute magnetization    =     1.35 Bohr mag/cell

     iteration # 26     ecut=    60.00 Ry     beta=0.70
     Davidson diagonalization with overlap
     ethr =  1.06E-08,  avg # of iterations =  3.0

     total cpu time spent up to now is     9920.6 secs

     total energy              =   -2562.59176026 Ry
     Harris-Foulkes estimate   =   -2562.59176331 Ry
     estimated scf accuracy    <       0.00002249 Ry

     total magnetization       =     0.96 Bohr mag/cell
     absolute magnetization    =     1.35 Bohr mag/cell

     iteration # 27     ecut=    60.00 Ry     beta=0.70
     Davidson diagonalization with overlap
     ethr =  9.91E-09,  avg # of iterations =  2.7

     total cpu time spent up to now is    10252.8 secs

     total energy              =   -2562.59176154 Ry
     Harris-Foulkes estimate   =   -2562.59176304 Ry
     estimated scf accuracy    <       0.00000943 Ry

     total magnetization       =     0.96 Bohr mag/cell
     absolute magnetization    =     1.36 Bohr mag/cell

     iteration # 28     ecut=    60.00 Ry     beta=0.70
     Davidson diagonalization with overlap
     ethr =  4.15E-09,  avg # of iterations =  1.8

     total cpu time spent up to now is    10579.7 secs

     total energy              =   -2562.59176199 Ry
     Harris-Foulkes estimate   =   -2562.59176314 Ry
     estimated scf accuracy    <       0.00000788 Ry

     total magnetization       =     0.96 Bohr mag/cell
     absolute magnetization    =     1.36 Bohr mag/cell

     iteration # 29     ecut=    60.00 Ry     beta=0.70
     Davidson diagonalization with overlap
     ethr =  3.47E-09,  avg # of iterations =  2.0

     total cpu time spent up to now is    10909.7 secs

     total energy              =   -2562.59176299 Ry
     Harris-Foulkes estimate   =   -2562.59176322 Ry
     estimated scf accuracy    <       0.00000304 Ry

     total magnetization       =     0.96 Bohr mag/cell
     absolute magnetization    =     1.36 Bohr mag/cell

     iteration # 30     ecut=    60.00 Ry     beta=0.70
     Davidson diagonalization with overlap
     ethr =  1.34E-09,  avg # of iterations =  3.0

     total cpu time spent up to now is    11315.4 secs

     total energy              =   -2562.59176335 Ry
     Harris-Foulkes estimate   =   -2562.59176443 Ry
     estimated scf accuracy    <       0.00000658 Ry

     total magnetization       =     0.96 Bohr mag/cell
     absolute magnetization    =     1.37 Bohr mag/cell

     iteration # 31     ecut=    60.00 Ry     beta=0.70
     Davidson diagonalization with overlap
     ethr =  1.34E-09,  avg # of iterations =  3.0

     total cpu time spent up to now is    11684.2 secs

     total energy              =   -2562.59176410 Ry
     Harris-Foulkes estimate   =   -2562.59176425 Ry
     estimated scf accuracy    <       0.00000127 Ry

     total magnetization       =     0.96 Bohr mag/cell
     absolute magnetization    =     1.38 Bohr mag/cell

     iteration # 32     ecut=    60.00 Ry     beta=0.70
     Davidson diagonalization with overlap
     ethr =  5.58E-10,  avg # of iterations =  1.1

     total cpu time spent up to now is    12005.7 secs

     End of self-consistent calculation

 ------ SPIN UP ------------


          k = 0.0057 0.0143 0.0185 ( 20261 PWs)   bands (ev):

   -60.1416 -60.1149 -60.1077 -60.1004 -60.0849 -60.0749 -60.0597 -60.0443
   -40.6310 -34.2208 -34.1697 -34.1662 -34.1232 -34.1187 -34.0918 -34.0674
   -34.0494 -34.0370 -34.0217 -34.0063 -33.9850 -33.9744 -33.9675 -33.9530
   -33.9365 -33.9224 -33.9207 -33.9074 -33.8989 -33.8864 -33.8826 -33.8713
   -33.8619 -13.6580 -13.5091 -13.1099 -12.9177 -12.8347 -12.7162 -12.5388
   -12.4904 -12.4006 -12.3667 -12.3518 -12.3133 -12.1510 -12.0714 -12.0546
   -11.9925 -11.8732 -11.8425 -11.8148 -11.7962  -1.0441  -0.9248  -0.7738
    -0.7270  -0.4845  -0.4404  -0.3099  -0.2811  -0.2017  -0.0725  -0.0051
     0.1995   0.2927   0.4660   0.5816   0.6373   0.6992   0.7432   0.8538
     0.9407   0.9540   1.0364   1.1226   1.1837   1.1973   1.2930   1.3546
     1.4907   1.5275   1.5672   1.6006   1.6569   1.7438   1.8155   1.8630
     1.8746   1.9137   1.9458   2.0334   2.0944   2.1293   2.1792   2.2601
     2.2926   2.3450   2.5099   2.6623   2.6861   2.7231   2.7896   2.9098
     2.9727   3.0379   3.0746   3.1447   3.2762   3.2973   3.3463   3.3727
     3.4898   5.6417   5.9073   5.9905   6.2143   6.7257   6.9002   6.9290
     7.1236   7.1574   7.2049   7.3236   7.4202   7.4601   7.4879   7.5014
     7.6801   7.7897   7.8315   7.8958   7.9129   7.9334   7.9803   7.9950
     8.1640

          k = 0.0057 0.0429 0.0185 ( 20257 PWs)   bands (ev):

   -60.1416 -60.1149 -60.1077 -60.1004 -60.0849 -60.0749 -60.0597 -60.0443
   -40.6309 -34.2221 -34.1709 -34.1675 -34.1245 -34.1201 -34.0932 -34.0686
   -34.0506 -34.0369 -34.0216 -34.0062 -33.9848 -33.9742 -33.9673 -33.9529
   -33.9364 -33.9224 -33.9207 -33.9073 -33.8989 -33.8863 -33.8826 -33.8713
   -33.8619 -13.6087 -13.4676 -13.0660 -12.8892 -12.8137 -12.6924 -12.5212
   -12.4744 -12.3918 -12.3585 -12.3426 -12.2945 -12.1466 -12.0599 -12.0451
   -11.9724 -11.8593 -11.8150 -11.8018 -11.7660  -1.0423  -0.9186  -0.8021
    -0.7567  -0.5522  -0.4669  -0.3570  -0.3323  -0.2957  -0.2023  -0.1234
    -0.0500   0.0617   0.1335   0.1410   0.2494   0.2874   0.3397   0.3963
     0.5256   0.6609   0.8577   0.8922   0.9472   0.9981   1.0396   1.0570
     1.0815   1.1997   1.3502   1.4200   1.4765   1.5481   1.5982   1.7362
     1.9883   2.0223   2.1581   2.2325   2.2767   2.4237   2.4733   2.5035
     2.5637   2.6573   2.6836   2.7510   2.7806   2.9894   3.0520   3.1210
     3.2270   3.2700   3.3066   3.3825   3.4198   3.4997   3.5325   3.6327
     3.6755   5.6900   5.9432   6.0055   6.2134   6.7688   6.9177   6.9504
     7.1624   7.2296   7.3334   7.3993   7.4365   7.4876   7.5301   7.5391
     7.7001   7.7809   7.8117   7.8658   7.9235   7.9723   8.0002   8.0613
     8.1934

          k = 0.0171 0.0143 0.0185 ( 20254 PWs)   bands (ev):

   -60.1416 -60.1149 -60.1077 -60.1004 -60.0849 -60.0749 -60.0597 -60.0443
   -40.6310 -34.2208 -34.1697 -34.1662 -34.1233 -34.1187 -34.0920 -34.0672
   -34.0499 -34.0333 -34.0199 -34.0082 -33.9915 -33.9789 -33.9676 -33.9484
   -33.9321 -33.9226 -33.9185 -33.9070 -33.9000 -33.8865 -33.8832 -33.8728
   -33.8620 -13.6345 -13.5413 -13.0913 -12.9635 -12.8077 -12.6870 -12.5462
   -12.4823 -12.4230 -12.3630 -12.3549 -12.3140 -12.1510 -12.0715 -12.0547
   -11.9927 -11.8727 -11.8421 -11.8144 -11.7959  -1.0334  -0.9577  -0.7769
    -0.7304  -0.4418  -0.4250  -0.3057  -0.2696  -0.1576  -0.0872  -0.0642
     0.0799   0.3632   0.4833   0.5728   0.6362   0.7269   0.7675   0.8144
     0.8861   0.9927   1.0325   1.0898   1.1774   1.2962   1.3204   1.4278
     1.4698   1.5540   1.5612   1.5921   1.6562   1.7226   1.7594   1.8412
     1.8767   1.9211   1.9666   2.0466   2.0850   2.1219   2.1671   2.2355
     2.2738   2.3550   2.5633   2.6083   2.6734   2.7266   2.7838   2.8668
     2.9473   3.0482   3.1132   3.1390   3.2385   3.2928   3.3710   3.3904
     3.5157   5.6609   5.8889   6.0473   6.2106   6.7251   6.8918   6.9349
     7.1544   7.1872   7.2578   7.2758   7.4035   7.4288   7.4779   7.5040
     7.5430   7.7713   7.8004   7.8876   7.9080   7.9440   7.9971   8.0879
     8.1434

          k = 0.0171 0.0429 0.0185 ( 20251 PWs)   bands (ev):

   -60.1416 -60.1149 -60.1077 -60.1004 -60.0849 -60.0749 -60.0597 -60.0443
   -40.6309 -34.2221 -34.1709 -34.1675 -34.1245 -34.1200 -34.0933 -34.0684
   -34.0511 -34.0333 -34.0197 -34.0080 -33.9913 -33.9787 -33.9675 -33.9483
   -33.9321 -33.9226 -33.9185 -33.9070 -33.9000 -33.8865 -33.8832 -33.8728
   -33.8620 -13.5869 -13.4970 -13.0486 -12.9302 -12.7915 -12.6692 -12.5246
   -12.4684 -12.4089 -12.3563 -12.3451 -12.2947 -12.1467 -12.0601 -12.0449
   -11.9730 -11.8571 -11.8164 -11.8002 -11.7673  -1.0289  -0.9512  -0.8047
    -0.7584  -0.4948  -0.4645  -0.3650  -0.3346  -0.2404  -0.2197  -0.1495
    -0.1239   0.0399   0.1167   0.1765   0.2258   0.2559   0.3418   0.5030
     0.5382   0.6600   0.7432   0.8822   0.9782   0.9995   1.0367   1.0929
     1.1373   1.2225   1.2681   1.4257   1.5574   1.6012   1.6362   1.8673
     1.9270   1.9850   2.1293   2.1616   2.2709   2.3499   2.4024   2.4361
     2.4804   2.6440   2.6853   2.8337   2.9663   2.9904   3.0443   3.1249
     3.1680   3.2419   3.3040   3.3687   3.4247   3.5280   3.5580   3.6253
     3.6900   5.7036   5.9261   6.0541   6.2093   6.7625   6.9225   6.9419
     7.1788   7.3003   7.3530   7.3892   7.4272   7.5046   7.5205   7.5556
     7.5682   7.7540   7.7723   7.8684   7.9281   7.9481   7.9778   8.1293
     8.1826

          k =-0.0057-0.0143 0.0185 ( 20261 PWs)   bands (ev):

   -60.1416 -60.1149 -60.1077 -60.1004 -60.0849 -60.0749 -60.0597 -60.0443
   -40.6310 -34.2208 -34.1697 -34.1662 -34.1232 -34.1187 -34.0918 -34.0674
   -34.0494 -34.0370 -34.0218 -34.0063 -33.9841 -33.9767 -33.9644 -33.9557
   -33.9353 -33.9216 -33.9209 -33.9087 -33.8986 -33.8860 -33.8824 -33.8717
   -33.8618 -13.6580 -13.5092 -13.1091 -12.9202 -12.8339 -12.7141 -12.5418
   -12.4887 -12.4006 -12.3678 -12.3505 -12.3134 -12.1503 -12.0710 -12.0554
   -11.9933 -11.8727 -11.8421 -11.8150 -11.7964  -1.0438  -0.9251  -0.7739
    -0.7276  -0.4833  -0.4410  -0.3058  -0.2863  -0.1994  -0.0736  -0.0008
     0.1979   0.3058   0.4449   0.5501   0.6664   0.7123   0.7357   0.8472
     0.9489   0.9578   1.0389   1.1204   1.1848   1.1932   1.2922   1.3472
     1.4964   1.5217   1.5714   1.6058   1.6547   1.7415   1.8200   1.8574
     1.8751   1.9244   1.9495   2.0464   2.0867   2.1239   2.1738   2.2580
     2.2839   2.3434   2.5202   2.6563   2.6915   2.7277   2.7713   2.9095
     2.9828   3.0307   3.0855   3.1459   3.2764   3.2916   3.3460   3.3743
     3.4898   5.6424   5.9075   5.9911   6.2144   6.7259   6.9001   6.9292
     7.1231   7.1559   7.2047   7.3259   7.4238   7.4543   7.4887   7.5023
     7.6776   7.7902   7.8363   7.8908   7.9009   7.9423   7.9784   7.9988
     8.1637

          k =-0.0057 0.0143-0.0185 ( 20261 PWs)   bands (ev):

   -60.1416 -60.1149 -60.1077 -60.1004 -60.0849 -60.0749 -60.0597 -60.0443
   -40.6310 -34.2208 -34.1697 -34.1662 -34.1232 -34.1187 -34.0918 -34.0674
   -34.0494 -34.0370 -34.0217 -34.0063 -33.9850 -33.9744 -33.9675 -33.9530
   -33.9365 -33.9224 -33.9207 -33.9074 -33.8989 -33.8864 -33.8826 -33.8713
   -33.8619 -13.6580 -13.5090 -13.1100 -12.9178 -12.8349 -12.7157 -12.5393
   -12.4904 -12.4007 -12.3664 -12.3522 -12.3131 -12.1502 -12.0710 -12.0551
   -11.9936 -11.8728 -11.8420 -11.8151 -11.7964  -1.0442  -0.9241  -0.7756
    -0.7256  -0.4839  -0.4405  -0.3108  -0.2837  -0.1971  -0.0760   0.0033
     0.1944   0.3026   0.4463   0.5525   0.6684   0.7034   0.7584   0.8375
     0.9466   0.9532   1.0357   1.1190   1.1854   1.1915   1.3108   1.3347
     1.5045   1.5269   1.5677   1.6079   1.6471   1.7394   1.8120   1.8515
     1.8796   1.9221   1.9569   2.0344   2.0920   2.1305   2.1740   2.2654
     2.2851   2.3387   2.5231   2.6604   2.6943   2.7210   2.7836   2.8794
     2.9876   3.0524   3.0738   3.1441   3.2760   3.2868   3.3471   3.3792
     3.4901   5.6423   5.9076   5.9913   6.2145   6.7254   6.8996   6.9286
     7.1255   7.1559   7.2050   7.3242   7.4194   7.4638   7.4838   7.5009
     7.6840   7.7862   7.8344   7.8794   7.9180   7.9368   7.9753   8.0019
     8.1650

          k = 0.0057-0.0143-0.0185 ( 20261 PWs)   bands (ev):

   -60.1416 -60.1149 -60.1077 -60.1004 -60.0849 -60.0749 -60.0597 -60.0443
   -40.6310 -34.2208 -34.1697 -34.1662 -34.1232 -34.1187 -34.0918 -34.0674
   -34.0494 -34.0370 -34.0218 -34.0063 -33.9841 -33.9767 -33.9644 -33.9557
   -33.9353 -33.9216 -33.9209 -33.9087 -33.8986 -33.8860 -33.8824 -33.8717
   -33.8619 -13.6580 -13.5092 -13.1091 -12.9201 -12.8336 -12.7146 -12.5416
   -12.4884 -12.4008 -12.3677 -12.3508 -12.3135 -12.1506 -12.0718 -12.0544
   -11.9926 -11.8732 -11.8425 -11.8149 -11.7961  -1.0441  -0.9248  -0.7749
    -0.7253  -0.4847  -0.4415  -0.3062  -0.2861  -0.1987  -0.0750  -0.0003
     0.1950   0.2912   0.4636   0.5830   0.6306   0.7147   0.7529   0.8461
     0.9327   0.9529   1.0347   1.1212   1.1848   1.1948   1.3106   1.3425
     1.5062   1.5254   1.5578   1.6097   1.6472   1.7424   1.8038   1.8550
     1.8785   1.9212   1.9500   2.0324   2.0923   2.1316   2.1791   2.2671
     2.2929   2.3426   2.5128   2.6642   2.6881   2.7220   2.7840   2.9126
     2.9692   3.0390   3.0715   3.1444   3.2784   3.2908   3.3486   3.3764
     3.4901   5.6417   5.9074   5.9907   6.2145   6.7250   6.8999   6.9288
     7.1265   7.1550   7.2059   7.3216   7.4229   7.4601   7.4865   7.4991
     7.6846   7.7856   7.8427   7.8838   7.9100   7.9367   7.9808   7.9958
     8.1653

          k =-0.0057-0.0429 0.0185 ( 20257 PWs)   bands (ev):

   -60.1416 -60.1149 -60.1077 -60.1004 -60.0849 -60.0749 -60.0597 -60.0443
   -40.6309 -34.2221 -34.1709 -34.1675 -34.1245 -34.1201 -34.0932 -34.0686
   -34.0506 -34.0369 -34.0216 -34.0062 -33.9839 -33.9765 -33.9642 -33.9556
   -33.9352 -33.9216 -33.9208 -33.9087 -33.8986 -33.8860 -33.8824 -33.8717
   -33.8618 -13.6086 -13.4677 -13.0652 -12.8919 -12.8125 -12.6908 -12.5237
   -12.4732 -12.3916 -12.3595 -12.3416 -12.2946 -12.1460 -12.0593 -12.0457
   -11.9733 -11.8590 -11.8144 -11.8020 -11.7663  -1.0421  -0.9189  -0.8025
    -0.7574  -0.5494  -0.4667  -0.3576  -0.3320  -0.2950  -0.2009  -0.1207
    -0.0452   0.0493   0.1250   0.1400   0.2513   0.2945   0.3379   0.3991
     0.5260   0.6605   0.8554   0.8950   0.9567   0.9964   1.0349   1.0543
     1.0773   1.2016   1.3511   1.4183   1.4815   1.5468   1.5991   1.7347
     1.9890   2.0221   2.1538   2.2423   2.2738   2.4233   2.4775   2.5012
     2.5647   2.6506   2.6796   2.7520   2.7805   3.0126   3.0312   3.1158
     3.2263   3.2768   3.3077   3.3875   3.4196   3.4982   3.5271   3.6350
     3.6747   5.6906   5.9434   6.0060   6.2135   6.7690   6.9173   6.9508
     7.1623   7.2290   7.3323   7.4009   7.4437   7.4780   7.5333   7.5387
     7.6984   7.7842   7.8102   7.8640   7.9219   7.9698   8.0015   8.0628
     8.1936

          k =-0.0057 0.0429-0.0185 ( 20257 PWs)   bands (ev):

   -60.1416 -60.1149 -60.1077 -60.1004 -60.0849 -60.0749 -60.0597 -60.0443
   -40.6309 -34.2221 -34.1709 -34.1675 -34.1245 -34.1201 -34.0932 -34.0686
   -34.0506 -34.0369 -34.0216 -34.0062 -33.9848 -33.9742 -33.9673 -33.9529
   -33.9364 -33.9224 -33.9207 -33.9073 -33.8989 -33.8863 -33.8826 -33.8713
   -33.8619 -13.6087 -13.4676 -13.0660 -12.8894 -12.8139 -12.6918 -12.5218
   -12.4744 -12.3918 -12.3581 -12.3429 -12.2944 -12.1458 -12.0594 -12.0457
   -11.9733 -11.8591 -11.8143 -11.8021 -11.7662  -1.0426  -0.9179  -0.8042
    -0.7554  -0.5499  -0.4663  -0.3589  -0.3361  -0.2895  -0.2025  -0.1260
    -0.0392   0.0570   0.1153   0.1423   0.2491   0.2920   0.3420   0.4002
     0.5259   0.6598   0.8528   0.8920   0.9607   0.9986   1.0316   1.0548
     1.0802   1.2044   1.3489   1.4181   1.4830   1.5451   1.5969   1.7366
     1.9902   2.0214   2.1472   2.2421   2.2717   2.4227   2.4782   2.5123
     2.5712   2.6370   2.6914   2.7462   2.7831   2.9957   3.0474   3.1082
     3.2341   3.2698   3.3089   3.3868   3.4216   3.4950   3.5273   3.6370
     3.6755   5.6906   5.9434   6.0061   6.2136   6.7685   6.9171   6.9506
     7.1634   7.2286   7.3335   7.4026   7.4339   7.4842   7.5309   7.5404
     7.7035   7.7849   7.8063   7.8643   7.9167   7.9755   8.0015   8.0607
     8.1951

          k = 0.0057-0.0429-0.0185 ( 20257 PWs)   bands (ev):

   -60.1416 -60.1149 -60.1077 -60.1004 -60.0849 -60.0749 -60.0597 -60.0443
   -40.6309 -34.2221 -34.1710 -34.1675 -34.1245 -34.1201 -34.0932 -34.0686
   -34.0506 -34.0369 -34.0216 -34.0062 -33.9839 -33.9765 -33.9642 -33.9556
   -33.9352 -33.9216 -33.9208 -33.9087 -33.8986 -33.8860 -33.8824 -33.8717
   -33.8618 -13.6086 -13.4678 -13.0652 -12.8918 -12.8122 -12.6913 -12.5235
   -12.4728 -12.3918 -12.3594 -12.3419 -12.2946 -12.1463 -12.0601 -12.0449
   -11.9725 -11.8595 -11.8148 -11.8020 -11.7659  -1.0424  -0.9185  -0.8033
    -0.7549  -0.5525  -0.4671  -0.3594  -0.3340  -0.2896  -0.2023  -0.1265
    -0.0501   0.0667   0.1170   0.1534   0.2479   0.2888   0.3406   0.3960
     0.5260   0.6603   0.8545   0.8898   0.9528   1.0014   1.0310   1.0594
     1.0857   1.2002   1.3488   1.4209   1.4782   1.5463   1.5963   1.7361
     1.9892   2.0213   2.1527   2.2449   2.2672   2.4164   2.4774   2.5138
     2.5706   2.6390   2.6983   2.7448   2.7849   2.9801   3.0528   3.1263
     3.2296   3.2705   3.2976   3.3827   3.4243   3.4968   3.5320   3.6347
     3.6763   5.6900   5.9432   6.0056   6.2135   6.7683   6.9179   6.9500
     7.1638   7.2284   7.3353   7.3936   7.4431   7.4803   7.5327   7.5397
     7.7038   7.7851   7.8058   7.8659   7.9196   7.9755   8.0012   8.0592
     8.1951

          k =-0.0171-0.0143 0.0185 ( 20254 PWs)   bands (ev):

   -60.1416 -60.1149 -60.1077 -60.1004 -60.0849 -60.0749 -60.0597 -60.0443
   -40.6310 -34.2208 -34.1697 -34.1662 -34.1233 -34.1187 -34.0920 -34.0672
   -34.0499 -34.0333 -34.0201 -34.0079 -33.9915 -33.9792 -33.9667 -33.9498
   -33.9314 -33.9217 -33.9179 -33.9094 -33.8994 -33.8861 -33.8830 -33.8732
   -33.8619 -13.6344 -13.5415 -13.0902 -12.9654 -12.8078 -12.6844 -12.5495
   -12.4806 -12.4233 -12.3641 -12.3536 -12.3141 -12.1502 -12.0711 -12.0555
   -11.9934 -11.8722 -11.8417 -11.8146 -11.7961  -1.0331  -0.9580  -0.7770
    -0.7311  -0.4391  -0.4266  -0.3061  -0.2699  -0.1547  -0.0851  -0.0648
     0.0783   0.3734   0.4806   0.5414   0.6484   0.7173   0.7651   0.8245
     0.8977   0.9932   1.0308   1.0920   1.1800   1.2958   1.3117   1.4297
     1.4829   1.5447   1.5645   1.5872   1.6609   1.7247   1.7573   1.8406
     1.8757   1.9191   1.9680   2.0497   2.0845   2.1207   2.1634   2.2427
     2.2729   2.3486   2.5685   2.6014   2.6738   2.7241   2.7797   2.8752
     2.9457   3.0470   3.1198   3.1356   3.2398   3.2928   3.3701   3.3898
     3.5155   5.6617   5.8888   6.0480   6.2108   6.7250   6.8921   6.9354
     7.1542   7.1855   7.2567   7.2772   7.4025   7.4338   7.4703   7.5058
     7.5451   7.7688   7.8039   7.8817   7.9066   7.9469   7.9970   8.0880
     8.1429

          k =-0.0171 0.0143-0.0185 ( 20254 PWs)   bands (ev):

   -60.1416 -60.1149 -60.1077 -60.1004 -60.0849 -60.0749 -60.0597 -60.0443
   -40.6310 -34.2208 -34.1697 -34.1662 -34.1233 -34.1187 -34.0920 -34.0672
   -34.0499 -34.0333 -34.0199 -34.0082 -33.9915 -33.9789 -33.9676 -33.9484
   -33.9321 -33.9226 -33.9185 -33.9070 -33.9000 -33.8865 -33.8832 -33.8728
   -33.8620 -13.6344 -13.5413 -13.0913 -12.9636 -12.8079 -12.6864 -12.5466
   -12.4825 -12.4229 -12.3627 -12.3553 -12.3138 -12.1501 -12.0711 -12.0552
   -11.9937 -11.8724 -11.8416 -11.8146 -11.7960  -1.0338  -0.9569  -0.7786
    -0.7293  -0.4397  -0.4262  -0.3077  -0.2707  -0.1533  -0.0880  -0.0586
     0.0752   0.3712   0.4703   0.5529   0.6684   0.7037   0.7591   0.8367
     0.8874   0.9947   1.0263   1.0896   1.1820   1.2777   1.3354   1.4245
     1.4974   1.5357   1.5666   1.6080   1.6374   1.7231   1.7478   1.8374
     1.8755   1.9242   1.9739   2.0351   2.0886   2.1199   2.1760   2.2467
     2.2677   2.3529   2.5654   2.6032   2.6812   2.7188   2.7877   2.8606
     2.9382   3.0658   3.1063   3.1390   3.2401   3.2874   3.3722   3.3933
     3.5157   5.6616   5.8889   6.0482   6.2109   6.7245   6.8915   6.9348
     7.1558   7.1878   7.2561   7.2773   7.3914   7.4385   7.4769   7.5030
     7.5469   7.7675   7.8049   7.8760   7.9114   7.9455   7.9979   8.0859
     8.1457

          k = 0.0171-0.0143-0.0185 ( 20254 PWs)   bands (ev):

   -60.1416 -60.1149 -60.1077 -60.1004 -60.0849 -60.0749 -60.0597 -60.0443
   -40.6310 -34.2208 -34.1697 -34.1662 -34.1233 -34.1187 -34.0920 -34.0672
   -34.0499 -34.0333 -34.0201 -34.0079 -33.9915 -33.9792 -33.9667 -33.9498
   -33.9314 -33.9217 -33.9179 -33.9093 -33.8994 -33.8861 -33.8830 -33.8732
   -33.8619 -13.6344 -13.5415 -13.0902 -12.9653 -12.8075 -12.6848 -12.5495
   -12.4801 -12.4236 -12.3640 -12.3539 -12.3141 -12.1506 -12.0719 -12.0545
   -11.9928 -11.8727 -11.8421 -11.8145 -11.7958  -1.0335  -0.9577  -0.7779
    -0.7289  -0.4389  -0.4299  -0.3033  -0.2705  -0.1580  -0.0885  -0.0590
     0.0767   0.3624   0.4719   0.5714   0.6681   0.7125   0.7646   0.8274
     0.8721   0.9944   1.0282   1.0882   1.1795   1.2823   1.3419   1.4160
     1.4866   1.5481   1.5650   1.6073   1.6346   1.7200   1.7510   1.8389
     1.8755   1.9243   1.9746   2.0412   2.0867   2.1215   2.1699   2.2379
     2.2720   2.3625   2.5595   2.6060   2.6789   2.7225   2.7867   2.8689
     2.9399   3.0523   3.1045   3.1448   3.2369   3.2897   3.3723   3.3939
     3.5159   5.6609   5.8889   6.0475   6.2108   6.7244   6.8914   6.9348
     7.1571   7.1865   7.2584   7.2745   7.3933   7.4441   7.4699   7.5026
     7.5477   7.7669   7.8077   7.8825   7.9075   7.9454   7.9974   8.0856
     8.1462

          k =-0.0171-0.0429 0.0185 ( 20251 PWs)   bands (ev):

   -60.1416 -60.1149 -60.1077 -60.1004 -60.0849 -60.0749 -60.0597 -60.0443
   -40.6309 -34.2221 -34.1709 -34.1675 -34.1245 -34.1200 -34.0933 -34.0684
   -34.0511 -34.0332 -34.0200 -34.0077 -33.9913 -33.9791 -33.9666 -33.9497
   -33.9314 -33.9216 -33.9179 -33.9093 -33.8993 -33.8860 -33.8830 -33.8732
   -33.8619 -13.5868 -13.4972 -13.0475 -12.9323 -12.7912 -12.6673 -12.5273
   -12.4671 -12.4089 -12.3573 -12.3439 -12.2948 -12.1460 -12.0596 -12.0457
   -11.9738 -11.8566 -11.8159 -11.8005 -11.7674  -1.0286  -0.9515  -0.8051
    -0.7593  -0.4907  -0.4643  -0.3677  -0.3337  -0.2374  -0.2158  -0.1489
    -0.1275   0.0317   0.1179   0.1716   0.2159   0.2723   0.3400   0.5044
     0.5375   0.6593   0.7436   0.8844   0.9747   0.9993   1.0324   1.1036
     1.1341   1.2206   1.2703   1.4263   1.5679   1.5919   1.6363   1.8699
     1.9234   1.9798   2.1326   2.1589   2.2725   2.3495   2.4059   2.4374
     2.4833   2.6404   2.6826   2.8305   2.9687   2.9896   3.0450   3.1226
     3.1684   3.2445   3.3049   3.3625   3.4345   3.5283   3.5528   3.6265
     3.6892   5.7043   5.9261   6.0548   6.2095   6.7620   6.9227   6.9422
     7.1788   7.3003   7.3564   7.3823   7.4345   7.4951   7.5244   7.5554
     7.5711   7.7557   7.7697   7.8651   7.9263   7.9502   7.9782   8.1292
     8.1823

          k =-0.0171 0.0429-0.0185 ( 20251 PWs)   bands (ev):

   -60.1416 -60.1149 -60.1077 -60.1004 -60.0849 -60.0749 -60.0597 -60.0443
   -40.6309 -34.2221 -34.1709 -34.1675 -34.1245 -34.1200 -34.0933 -34.0684
   -34.0511 -34.0333 -34.0197 -34.0080 -33.9913 -33.9787 -33.9675 -33.9483
   -33.9321 -33.9226 -33.9185 -33.9070 -33.9000 -33.8865 -33.8832 -33.8728
   -33.8620 -13.5868 -13.4970 -13.0486 -12.9304 -12.7917 -12.6686 -12.5250
   -12.4686 -12.4088 -12.3559 -12.3454 -12.2946 -12.1458 -12.0596 -12.0456
   -11.9738 -11.8568 -11.8158 -11.8005 -11.7673  -1.0294  -0.9504  -0.8066
    -0.7574  -0.4919  -0.4628  -0.3661  -0.3388  -0.2376  -0.2131  -0.1536
    -0.1247   0.0400   0.1133   0.1656   0.2194   0.2746   0.3370   0.5089
     0.5371   0.6569   0.7418   0.8824   0.9819   0.9939   1.0361   1.1021
     1.1363   1.2194   1.2677   1.4353   1.5567   1.5938   1.6392   1.8644
     1.9244   1.9851   2.1209   2.1601   2.2757   2.3530   2.4105   2.4361
     2.4851   2.6338   2.6896   2.8304   2.9646   2.9965   3.0470   3.1025
     3.1836   3.2399   3.3041   3.3649   3.4332   3.5284   3.5498   3.6299
     3.6897   5.7042   5.9261   6.0549   6.2096   6.7615   6.9225   6.9420
     7.1794   7.3036   7.3516   7.3907   7.4202   7.4983   7.5217   7.5621
     7.5735   7.7537   7.7703   7.8636   7.9257   7.9494   7.9808   8.1263
     8.1852

          k = 0.0171-0.0429-0.0185 ( 20251 PWs)   bands (ev):

   -60.1416 -60.1149 -60.1077 -60.1004 -60.0849 -60.0749 -60.0597 -60.0443
   -40.6309 -34.2221 -34.1709 -34.1675 -34.1245 -34.1200 -34.0933 -34.0684
   -34.0511 -34.0333 -34.0200 -34.0077 -33.9913 -33.9791 -33.9666 -33.9497
   -33.9314 -33.9216 -33.9179 -33.9093 -33.8993 -33.8860 -33.8830 -33.8732
   -33.8619 -13.5868 -13.4972 -13.0474 -12.9322 -12.7909 -12.6678 -12.5271
   -12.4666 -12.4091 -12.3571 -12.3443 -12.2948 -12.1465 -12.0603 -12.0447
   -11.9730 -11.8573 -11.8162 -11.8004 -11.7672  -1.0291  -0.9511  -0.8058
    -0.7568  -0.4952  -0.4650  -0.3670  -0.3335  -0.2379  -0.2154  -0.1510
    -0.1304   0.0468   0.1075   0.1787   0.2292   0.2571   0.3385   0.5065
     0.5380   0.6577   0.7420   0.8809   0.9808   0.9994   1.0389   1.0925
     1.1386   1.2199   1.2668   1.4313   1.5554   1.5953   1.6404   1.8673
     1.9216   1.9876   2.1351   2.1509   2.2752   2.3495   2.4085   2.4341
     2.4827   2.6363   2.6928   2.8339   2.9705   2.9815   3.0450   3.1269
     3.1698   3.2367   3.3047   3.3687   3.4248   3.5285   3.5547   3.6288
     3.6905   5.7035   5.9261   6.0543   6.2093   6.7619   6.9228   6.9414
     7.1797   7.3010   7.3590   7.3784   7.4300   7.4980   7.5188   7.5604
     7.5748   7.7525   7.7723   7.8674   7.9261   7.9492   7.9797   8.1264
     8.1856

 ------ SPIN DOWN ----------


          k = 0.0057 0.0143 0.0185 ( 20261 PWs)   bands (ev):

   -60.0820 -60.0586 -60.0380 -60.0233 -59.8643 -59.8427 -59.8386 -59.8181
   -40.6315 -34.1065 -34.0905 -34.0789 -34.0626 -34.0482 -34.0464 -34.0338
   -34.0196 -33.9679 -33.9228 -33.9181 -33.9126 -33.8975 -33.8704 -33.8664
   -33.8493 -33.6877 -33.6569 -33.6374 -33.6273 -33.6095 -33.5995 -33.5696
   -33.5497 -13.6642 -13.5123 -13.1269 -12.9226 -12.8598 -12.7395 -12.5460
   -12.4964 -12.4069 -12.3724 -12.3569 -12.3189 -12.1727 -12.0929 -12.0723
   -12.0100 -11.8768 -11.8463 -11.8179 -11.7995  -1.0111  -0.8987  -0.7404
    -0.6959  -0.4580  -0.4187  -0.2854  -0.2562  -0.1812  -0.0660   0.0174
     0.2150   0.3116   0.4893   0.6038   0.6565   0.7201   0.7603   0.8714
     0.9588   0.9692   1.0454   1.1420   1.1965   1.2116   1.3104   1.3713
     1.5087   1.5495   1.5830   1.6159   1.6722   1.7501   1.8267   1.8703
     1.8792   1.9186   1.9532   2.0411   2.0965   2.1340   2.1827   2.2579
     2.2888   2.3502   2.5035   2.6635   2.6898   2.7289   2.7917   2.9060
     2.9686   3.0309   3.0713   3.1480   3.2682   3.2875   3.3386   3.3575
     3.4845   5.9160   6.1914   6.2190   6.4944   6.9224   7.0156   7.1866
     7.2115   7.2765   7.3203   7.4429   7.5281   7.5453   7.5638   7.5885
     7.7572   7.8690   7.9525   7.9749   8.0037   8.0188   8.0350   8.1047
     8.2178

          k = 0.0057 0.0429 0.0185 ( 20257 PWs)   bands (ev):

   -60.0820 -60.0586 -60.0380 -60.0233 -59.8643 -59.8427 -59.8386 -59.8181
   -40.6315 -34.1075 -34.0920 -34.0801 -34.0639 -34.0496 -34.0476 -34.0351
   -34.0210 -33.9678 -33.9226 -33.9180 -33.9125 -33.8974 -33.8703 -33.8663
   -33.8492 -33.6878 -33.6569 -33.6374 -33.6273 -33.6094 -33.5994 -33.5695
   -33.5496 -13.6144 -13.4708 -13.0829 -12.8945 -12.8389 -12.7170 -12.5279
   -12.4802 -12.3980 -12.3641 -12.3478 -12.2999 -12.1684 -12.0813 -12.0629
   -11.9902 -11.8633 -11.8192 -11.8050 -11.7694  -1.0096  -0.8934  -0.7701
    -0.7267  -0.5212  -0.4455  -0.3353  -0.3091  -0.2737  -0.1841  -0.1042
    -0.0311   0.0812   0.1497   0.1618   0.2626   0.3036   0.3521   0.4109
     0.5338   0.6651   0.8747   0.9203   0.9666   1.0173   1.0600   1.0736
     1.1006   1.2147   1.3607   1.4417   1.4869   1.5672   1.6083   1.7458
     1.9974   2.0356   2.1644   2.2426   2.2814   2.4257   2.4765   2.5054
     2.5637   2.6623   2.6906   2.7501   2.7873   2.9770   3.0447   3.1134
     3.2230   3.2651   3.2996   3.3759   3.4148   3.4870   3.5262   3.6279
     3.6700   5.9601   6.2043   6.2559   6.4880   6.9651   7.0688   7.2005
     7.3017   7.3395   7.4199   7.5142   7.5501   7.5662   7.5984   7.6369
     7.7692   7.8685   7.9230   7.9789   8.0059   8.0419   8.0853   8.1332
     8.2441

          k = 0.0171 0.0143 0.0185 ( 20254 PWs)   bands (ev):

   -60.0820 -60.0586 -60.0380 -60.0233 -59.8643 -59.8427 -59.8386 -59.8181
   -40.6315 -34.1065 -34.0905 -34.0789 -34.0626 -34.0482 -34.0464 -34.0338
   -34.0197 -33.9676 -33.9224 -33.9180 -33.9129 -33.8976 -33.8709 -33.8663
   -33.8493 -33.6873 -33.6565 -33.6377 -33.6272 -33.6096 -33.5997 -33.5696
   -33.5497 -13.6405 -13.5452 -13.1098 -12.9679 -12.8341 -12.7086 -12.5527
   -12.4892 -12.4283 -12.3688 -12.3600 -12.3193 -12.1727 -12.0929 -12.0722
   -12.0101 -11.8763 -11.8459 -11.8174 -11.7992  -0.9997  -0.9314  -0.7439
    -0.7000  -0.4207  -0.4022  -0.2794  -0.2427  -0.1342  -0.0738  -0.0495
     0.0957   0.3819   0.5060   0.5958   0.6567   0.7447   0.7887   0.8306
     0.9031   1.0047   1.0407   1.1150   1.1927   1.3119   1.3312   1.4411
     1.4876   1.5673   1.5764   1.6158   1.6688   1.7329   1.7689   1.8523
     1.8795   1.9273   1.9723   2.0524   2.0900   2.1267   2.1688   2.2352
     2.2805   2.3503   2.5618   2.6045   2.6768   2.7312   2.7863   2.8666
     2.9516   3.0396   3.1139   3.1322   3.2331   3.2889   3.3573   3.3738
     3.5087   5.9289   6.2029   6.2444   6.5025   6.9242   7.0078   7.2013
     7.2602   7.3181   7.3467   7.3898   7.4703   7.5436   7.5537   7.5905
     7.6179   7.8464   7.8804   7.9773   8.0108   8.0399   8.1078   8.1498
     8.1989

          k = 0.0171 0.0429 0.0185 ( 20251 PWs)   bands (ev):

   -60.0820 -60.0586 -60.0380 -60.0233 -59.8643 -59.8427 -59.8386 -59.8181
   -40.6315 -34.1075 -34.0920 -34.0800 -34.0638 -34.0496 -34.0476 -34.0351
   -34.0211 -33.9675 -33.9222 -33.9180 -33.9128 -33.8975 -33.8708 -33.8662
   -33.8492 -33.6873 -33.6565 -33.6377 -33.6272 -33.6095 -33.5996 -33.5695
   -33.5496 -13.5925 -13.5007 -13.0670 -12.9348 -12.8178 -12.6922 -12.5308
   -12.4748 -12.4141 -12.3620 -12.3502 -12.2999 -12.1686 -12.0813 -12.0627
   -11.9906 -11.8614 -11.8205 -11.8036 -11.7705  -0.9957  -0.9257  -0.7729
    -0.7291  -0.4662  -0.4406  -0.3446  -0.3097  -0.2198  -0.1939  -0.1413
    -0.0989   0.0569   0.1343   0.1951   0.2440   0.2705   0.3537   0.5139
     0.5479   0.6684   0.7579   0.9147   0.9943   1.0232   1.0595   1.1081
     1.1512   1.2345   1.2793   1.4330   1.5676   1.6246   1.6512   1.8812
     1.9411   1.9914   2.1386   2.1694   2.2791   2.3544   2.4045   2.4389
     2.4883   2.6517   2.6897   2.8253   2.9639   2.9866   3.0342   3.1176
     3.1612   3.2474   3.2989   3.3611   3.4123   3.5234   3.5409   3.6220
     3.6838   5.9677   6.2415   6.2482   6.4980   6.9636   7.0523   7.2150
     7.3336   7.4049   7.4439   7.4874   7.5404   7.5614   7.6021   7.6317
     7.6713   7.8286   7.8621   7.9864   8.0101   8.0386   8.0607   8.1974
     8.2302

          k =-0.0057-0.0143 0.0185 ( 20261 PWs)   bands (ev):

   -60.0820 -60.0586 -60.0380 -60.0233 -59.8643 -59.8427 -59.8386 -59.8181
   -40.6316 -34.1065 -34.0905 -34.0789 -34.0627 -34.0482 -34.0463 -34.0338
   -34.0196 -33.9679 -33.9228 -33.9181 -33.9126 -33.8975 -33.8704 -33.8664
   -33.8493 -33.6878 -33.6568 -33.6374 -33.6274 -33.6094 -33.5995 -33.5696
   -33.5497 -13.6641 -13.5125 -13.1260 -12.9260 -12.8579 -12.7379 -12.5486
   -12.4950 -12.4068 -12.3734 -12.3558 -12.3189 -12.1720 -12.0925 -12.0730
   -12.0107 -11.8763 -11.8459 -11.8180 -11.7997  -1.0107  -0.8989  -0.7405
    -0.6966  -0.4566  -0.4194  -0.2824  -0.2603  -0.1788  -0.0671   0.0216
     0.2133   0.3244   0.4691   0.5709   0.6882   0.7314   0.7543   0.8636
     0.9629   0.9761   1.0485   1.1410   1.1965   1.2077   1.3094   1.3638
     1.5149   1.5429   1.5882   1.6215   1.6698   1.7475   1.8312   1.8620
     1.8822   1.9308   1.9561   2.0540   2.0868   2.1295   2.1775   2.2549
     2.2803   2.3492   2.5145   2.6573   2.6947   2.7335   2.7718   2.9079
     2.9786   3.0264   3.0791   3.1495   3.2660   3.2833   3.3381   3.3598
     3.4844   5.9159   6.1917   6.2203   6.4945   6.9228   7.0150   7.1865
     7.2101   7.2765   7.3215   7.4446   7.5252   7.5513   7.5588   7.5897
     7.7547   7.8692   7.9588   7.9718   7.9915   8.0194   8.0384   8.1074
     8.2178

          k =-0.0057 0.0143-0.0185 ( 20261 PWs)   bands (ev):

   -60.0820 -60.0586 -60.0380 -60.0233 -59.8643 -59.8427 -59.8386 -59.8181
   -40.6315 -34.1065 -34.0905 -34.0789 -34.0627 -34.0482 -34.0464 -34.0338
   -34.0196 -33.9679 -33.9228 -33.9181 -33.9126 -33.8975 -33.8704 -33.8664
   -33.8493 -33.6878 -33.6569 -33.6374 -33.6273 -33.6095 -33.5995 -33.5696
   -33.5497 -13.6641 -13.5123 -13.1269 -12.9228 -12.8600 -12.7390 -12.5466
   -12.4964 -12.4070 -12.3720 -12.3573 -12.3187 -12.1720 -12.0925 -12.0727
   -12.0110 -11.8764 -11.8458 -11.8181 -11.7996  -1.0112  -0.8979  -0.7423
    -0.6945  -0.4573  -0.4190  -0.2865  -0.2585  -0.1766  -0.0691   0.0253
     0.2101   0.3213   0.4709   0.5725   0.6885   0.7236   0.7773   0.8548
     0.9652   0.9672   1.0445   1.1399   1.1930   1.2099   1.3286   1.3512
     1.5231   1.5475   1.5848   1.6229   1.6636   1.7440   1.8236   1.8572
     1.8857   1.9272   1.9637   2.0429   2.0919   2.1356   2.1785   2.2610
     2.2826   2.3442   2.5177   2.6608   2.6980   2.7261   2.7849   2.8769
     2.9847   3.0500   3.0651   3.1480   3.2647   3.2792   3.3397   3.3643
     3.4848   5.9158   6.1918   6.2203   6.4947   6.9226   7.0135   7.1870
     7.2106   7.2767   7.3227   7.4433   7.5247   7.5464   7.5657   7.5872
     7.7596   7.8669   7.9487   7.9773   7.9983   8.0191   8.0320   8.1091
     8.2193

          k = 0.0057-0.0143-0.0185 ( 20261 PWs)   bands (ev):

   -60.0820 -60.0586 -60.0380 -60.0233 -59.8643 -59.8427 -59.8386 -59.8181
   -40.6315 -34.1065 -34.0905 -34.0789 -34.0626 -34.0482 -34.0463 -34.0338
   -34.0196 -33.9679 -33.9228 -33.9181 -33.9126 -33.8975 -33.8704 -33.8664
   -33.8493 -33.6878 -33.6568 -33.6374 -33.6274 -33.6094 -33.5995 -33.5696
   -33.5497 -13.6641 -13.5125 -13.1260 -12.9259 -12.8577 -12.7382 -12.5484
   -12.4947 -12.4070 -12.3734 -12.3561 -12.3190 -12.1723 -12.0933 -12.0721
   -12.0101 -11.8768 -11.8463 -11.8179 -11.7994  -1.0111  -0.8987  -0.7415
    -0.6943  -0.4579  -0.4202  -0.2826  -0.2600  -0.1784  -0.0681   0.0219
     0.2107   0.3101   0.4870   0.6044   0.6499   0.7345   0.7712   0.8643
     0.9525   0.9663   1.0431   1.1410   1.1953   1.2113   1.3283   1.3594
     1.5241   1.5479   1.5724   1.6244   1.6642   1.7476   1.8153   1.8618
     1.8835   1.9260   1.9575   2.0410   2.0933   2.1366   2.1826   2.2639
     2.2904   2.3472   2.5067   2.6649   2.6917   2.7276   2.7869   2.9073
     2.9660   3.0339   3.0664   3.1483   3.2695   3.2815   3.3415   3.3606
     3.4848   5.9160   6.1915   6.2190   6.4946   6.9223   7.0140   7.1882
     7.2112   7.2771   7.3200   7.4411   7.5279   7.5485   7.5621   7.5867
     7.7610   7.8668   7.9614   7.9737   8.0003   8.0114   8.0361   8.1057
     8.2194

          k =-0.0057-0.0429 0.0185 ( 20257 PWs)   bands (ev):

   -60.0820 -60.0586 -60.0380 -60.0233 -59.8643 -59.8427 -59.8386 -59.8181
   -40.6315 -34.1075 -34.0920 -34.0801 -34.0639 -34.0496 -34.0476 -34.0352
   -34.0210 -33.9678 -33.9226 -33.9180 -33.9125 -33.8974 -33.8703 -33.8663
   -33.8492 -33.6878 -33.6568 -33.6374 -33.6273 -33.6093 -33.5994 -33.5695
   -33.5496 -13.6144 -13.4709 -13.0820 -12.8981 -12.8364 -12.7158 -12.5300
   -12.4791 -12.3978 -12.3650 -12.3468 -12.2999 -12.1678 -12.0807 -12.0635
   -11.9910 -11.8630 -11.8187 -11.8052 -11.7697  -1.0093  -0.8937  -0.7704
    -0.7276  -0.5187  -0.4452  -0.3371  -0.3070  -0.2735  -0.1835  -0.0999
    -0.0266   0.0691   0.1413   0.1586   0.2670   0.3108   0.3501   0.4132
     0.5340   0.6648   0.8733   0.9221   0.9739   1.0176   1.0589   1.0691
     1.0950   1.2167   1.3617   1.4393   1.4931   1.5650   1.6096   1.7442
     1.9982   2.0354   2.1600   2.2561   2.2746   2.4255   2.4814   2.5020
     2.5647   2.6555   2.6872   2.7500   2.7880   3.0014   3.0218   3.1093
     3.2236   3.2738   3.2981   3.3807   3.4140   3.4846   3.5221   3.6300
     3.6693   5.9601   6.2043   6.2574   6.4880   6.9657   7.0676   7.2000
     7.3024   7.3411   7.4192   7.5199   7.5443   7.5684   7.5965   7.6376
     7.7669   7.8706   7.9219   7.9779   8.0019   8.0446   8.0827   8.1354
     8.2446

          k =-0.0057 0.0429-0.0185 ( 20257 PWs)   bands (ev):

   -60.0820 -60.0586 -60.0380 -60.0233 -59.8643 -59.8427 -59.8386 -59.8181
   -40.6315 -34.1075 -34.0920 -34.0800 -34.0639 -34.0496 -34.0476 -34.0351
   -34.0210 -33.9677 -33.9226 -33.9180 -33.9125 -33.8974 -33.8703 -33.8663
   -33.8492 -33.6877 -33.6569 -33.6374 -33.6273 -33.6094 -33.5994 -33.5695
   -33.5496 -13.6144 -13.4708 -13.0829 -12.8946 -12.8390 -12.7165 -12.5285
   -12.4802 -12.3981 -12.3637 -12.3481 -12.2997 -12.1676 -12.0808 -12.0634
   -11.9911 -11.8632 -11.8186 -11.8052 -11.7696  -1.0098  -0.8927  -0.7724
    -0.7253  -0.5191  -0.4449  -0.3377  -0.3118  -0.2681  -0.1848  -0.1062
    -0.0196   0.0774   0.1321   0.1598   0.2645   0.3078   0.3545   0.4148
     0.5339   0.6642   0.8697   0.9194   0.9782   1.0223   1.0468   1.0749
     1.0990   1.2194   1.3593   1.4391   1.4940   1.5635   1.6076   1.7462
     1.9992   2.0347   2.1542   2.2530   2.2753   2.4251   2.4824   2.5122
     2.5711   2.6423   2.6989   2.7461   2.7885   2.9859   3.0360   3.1026
     3.2316   3.2667   3.2985   3.3805   3.4169   3.4808   3.5225   3.6317
     3.6700   5.9600   6.2044   6.2574   6.4881   6.9654   7.0669   7.2001
     7.3028   7.3407   7.4216   7.5185   7.5408   7.5668   7.5977   7.6395
     7.7713   7.8721   7.9169   7.9774   8.0029   8.0445   8.0838   8.1331
     8.2466

          k = 0.0057-0.0429-0.0185 ( 20257 PWs)   bands (ev):

   -60.0820 -60.0586 -60.0380 -60.0233 -59.8643 -59.8427 -59.8386 -59.8181
   -40.6315 -34.1075 -34.0920 -34.0800 -34.0639 -34.0496 -34.0476 -34.0351
   -34.0210 -33.9678 -33.9226 -33.9180 -33.9125 -33.8974 -33.8703 -33.8663
   -33.8492 -33.6878 -33.6568 -33.6374 -33.6273 -33.6093 -33.5994 -33.5695
   -33.5496 -13.6144 -13.4709 -13.0820 -12.8981 -12.8362 -12.7162 -12.5298
   -12.4788 -12.3980 -12.3650 -12.3472 -12.3000 -12.1681 -12.0815 -12.0627
   -11.9902 -11.8635 -11.8191 -11.8052 -11.7694  -1.0097  -0.8933  -0.7713
    -0.7249  -0.5215  -0.4458  -0.3389  -0.3089  -0.2683  -0.1842  -0.1068
    -0.0316   0.0870   0.1348   0.1721   0.2612   0.3041   0.3535   0.4110
     0.5342   0.6645   0.8713   0.9171   0.9728   1.0235   1.0457   1.0793
     1.1050   1.2150   1.3591   1.4424   1.4890   1.5649   1.6066   1.7457
     1.9983   2.0345   2.1599   2.2565   2.2697   2.4187   2.4809   2.5145
     2.5704   2.6449   2.7050   2.7461   2.7895   2.9681   3.0455   3.1185
     3.2257   3.2663   3.2891   3.3764   3.4203   3.4830   3.5262   3.6296
     3.6708   5.9601   6.2044   6.2559   6.4881   6.9649   7.0682   7.2009
     7.3026   7.3380   7.4222   7.5106   7.5506   7.5665   7.5954   7.6399
     7.7724   7.8721   7.9179   7.9813   7.9993   8.0474   8.0851   8.1306
     8.2463

          k =-0.0171-0.0143 0.0185 ( 20254 PWs)   bands (ev):

   -60.0820 -60.0586 -60.0380 -60.0233 -59.8643 -59.8427 -59.8386 -59.8181
   -40.6315 -34.1065 -34.0905 -34.0789 -34.0626 -34.0482 -34.0463 -34.0338
   -34.0196 -33.9676 -33.9223 -33.9181 -33.9129 -33.8976 -33.8709 -33.8663
   -33.8493 -33.6873 -33.6565 -33.6377 -33.6273 -33.6095 -33.5997 -33.5696
   -33.5497 -13.6404 -13.5453 -13.1088 -12.9701 -12.8336 -12.7067 -12.5554
   -12.4877 -12.4284 -12.3698 -12.3589 -12.3194 -12.1719 -12.0925 -12.0730
   -12.0108 -11.8759 -11.8456 -11.8176 -11.7993  -0.9993  -0.9317  -0.7439
    -0.7007  -0.4181  -0.4037  -0.2814  -0.2416  -0.1310  -0.0722  -0.0500
     0.0943   0.3923   0.5037   0.5642   0.6670   0.7380   0.7858   0.8402
     0.9141   1.0048   1.0396   1.1178   1.1952   1.3097   1.3239   1.4430
     1.5003   1.5579   1.5838   1.6059   1.6751   1.7350   1.7668   1.8515
     1.8779   1.9251   1.9739   2.0556   2.0906   2.1255   2.1638   2.2425
     2.2799   2.3436   2.5693   2.5953   2.6769   2.7285   2.7821   2.8757
     2.9500   3.0393   3.1191   3.1297   3.2345   3.2889   3.3552   3.3742
     3.5084   5.9288   6.2044   6.2445   6.5027   6.9244   7.0074   7.2014
     7.2618   7.3185   7.3444   7.3901   7.4700   7.5433   7.5566   7.5848
     7.6208   7.8447   7.8820   7.9760   8.0075   8.0405   8.1072   8.1502
     8.1992

          k =-0.0171 0.0143-0.0185 ( 20254 PWs)   bands (ev):

   -60.0820 -60.0586 -60.0380 -60.0233 -59.8643 -59.8427 -59.8386 -59.8181
   -40.6315 -34.1065 -34.0905 -34.0789 -34.0626 -34.0482 -34.0464 -34.0338
   -34.0196 -33.9676 -33.9224 -33.9180 -33.9129 -33.8976 -33.8709 -33.8663
   -33.8493 -33.6873 -33.6565 -33.6377 -33.6272 -33.6096 -33.5996 -33.5696
   -33.5497 -13.6405 -13.5452 -13.1099 -12.9681 -12.8342 -12.7082 -12.5531
   -12.4893 -12.4282 -12.3685 -12.3604 -12.3192 -12.1718 -12.0926 -12.0727
   -12.0110 -11.8760 -11.8454 -11.8177 -11.7993  -1.0000  -0.9305  -0.7456
    -0.6987  -0.4184  -0.4039  -0.2817  -0.2433  -0.1301  -0.0747  -0.0439
     0.0913   0.3902   0.4940   0.5750   0.6851   0.7248   0.7814   0.8523
     0.9047   1.0055   1.0346   1.1161   1.1970   1.2883   1.3508   1.4396
     1.5147   1.5469   1.5881   1.6237   1.6532   1.7326   1.7571   1.8482
     1.8775   1.9300   1.9809   2.0417   2.0930   2.1243   2.1777   2.2466
     2.2741   2.3484   2.5663   2.5972   2.6838   2.7235   2.7895   2.8616
     2.9415   3.0591   3.1050   3.1338   3.2348   3.2825   3.3595   3.3763
     3.5087   5.9288   6.2045   6.2446   6.5030   6.9244   7.0056   7.2015
     7.2635   7.3180   7.3470   7.3894   7.4662   7.5351   7.5657   7.5877
     7.6200   7.8439   7.8823   7.9732   8.0106   8.0391   8.1062   8.1490
     8.2022

          k = 0.0171-0.0143-0.0185 ( 20254 PWs)   bands (ev):

   -60.0820 -60.0586 -60.0380 -60.0233 -59.8643 -59.8427 -59.8386 -59.8181
   -40.6315 -34.1065 -34.0905 -34.0789 -34.0626 -34.0482 -34.0463 -34.0338
   -34.0197 -33.9676 -33.9223 -33.9181 -33.9129 -33.8976 -33.8709 -33.8663
   -33.8493 -33.6873 -33.6565 -33.6377 -33.6273 -33.6095 -33.5997 -33.5696
   -33.5497 -13.6404 -13.5454 -13.1087 -12.9700 -12.8334 -12.7070 -12.5553
   -12.4872 -12.4287 -12.3697 -12.3592 -12.3194 -12.1722 -12.0933 -12.0720
   -12.0102 -11.8763 -11.8459 -11.8175 -11.7991  -0.9998  -0.9313  -0.7449
    -0.6984  -0.4174  -0.4075  -0.2780  -0.2424  -0.1346  -0.0760  -0.0437
     0.0927   0.3813   0.4946   0.5943   0.6868   0.7318   0.7864   0.8430
     0.8900   1.0055   1.0362   1.1140   1.1947   1.2940   1.3565   1.4313
     1.5041   1.5581   1.5857   1.6245   1.6503   1.7304   1.7594   1.8503
     1.8781   1.9302   1.9811   2.0473   2.0895   2.1275   2.1720   2.2373
     2.2785   2.3579   2.5591   2.6016   2.6815   2.7275   2.7891   2.8678
     2.9447   3.0443   3.1036   3.1397   3.2316   3.2849   3.3603   3.3761
     3.5089   5.9289   6.2030   6.2445   6.5027   6.9244   7.0059   7.2020
     7.2624   7.3181   7.3464   7.3888   7.4663   7.5411   7.5639   7.5832
     7.6219   7.8433   7.8851   7.9759   8.0107   8.0392   8.1077   8.1464
     8.2026

          k =-0.0171-0.0429 0.0185 ( 20251 PWs)   bands (ev):

   -60.0820 -60.0586 -60.0380 -60.0233 -59.8643 -59.8427 -59.8386 -59.8181
   -40.6315 -34.1075 -34.0920 -34.0800 -34.0638 -34.0496 -34.0476 -34.0352
   -34.0211 -33.9675 -33.9222 -33.9180 -33.9128 -33.8975 -33.8708 -33.8662
   -33.8492 -33.6873 -33.6565 -33.6377 -33.6273 -33.6094 -33.5996 -33.5695
   -33.5496 -13.5924 -13.5009 -13.0659 -12.9371 -12.8169 -12.6908 -12.5330
   -12.4737 -12.4141 -12.3629 -12.3492 -12.2999 -12.1679 -12.0808 -12.0635
   -11.9914 -11.8610 -11.8200 -11.8039 -11.7707  -0.9953  -0.9260  -0.7732
    -0.7299  -0.4625  -0.4403  -0.3483  -0.3077  -0.2171  -0.1899  -0.1398
    -0.1030   0.0492   0.1363   0.1877   0.2340   0.2888   0.3518   0.5154
     0.5469   0.6678   0.7586   0.9164   0.9905   1.0233   1.0553   1.1183
     1.1484   1.2328   1.2815   1.4336   1.5757   1.6182   1.6506   1.8838
     1.9373   1.9866   2.1418   2.1667   2.2807   2.3540   2.4083   2.4400
     2.4916   2.6476   2.6869   2.8220   2.9674   2.9874   3.0311   3.1168
     3.1628   3.2489   3.2998   3.3549   3.4224   3.5240   3.5354   3.6230
     3.6829   5.9676   6.2423   6.2490   6.4981   6.9638   7.0511   7.2149
     7.3371   7.4056   7.4423   7.4887   7.5367   7.5618   7.6044   7.6285
     7.6729   7.8304   7.8599   7.9851   8.0057   8.0404   8.0619   8.1969
     8.2303

          k =-0.0171 0.0429-0.0185 ( 20251 PWs)   bands (ev):

   -60.0820 -60.0586 -60.0380 -60.0233 -59.8643 -59.8427 -59.8386 -59.8181
   -40.6315 -34.1075 -34.0920 -34.0800 -34.0638 -34.0496 -34.0476 -34.0352
   -34.0211 -33.9675 -33.9222 -33.9180 -33.9128 -33.8975 -33.8708 -33.8662
   -33.8492 -33.6873 -33.6565 -33.6377 -33.6272 -33.6095 -33.5996 -33.5695
   -33.5496 -13.5924 -13.5007 -13.0670 -12.9349 -12.8179 -12.6917 -12.5312
   -12.4750 -12.4141 -12.3617 -12.3506 -12.2998 -12.1677 -12.0808 -12.0634
   -11.9914 -11.8611 -11.8200 -11.8039 -11.7706  -0.9962  -0.9248  -0.7750
    -0.7279  -0.4635  -0.4395  -0.3454  -0.3137  -0.2169  -0.1881  -0.1431
    -0.1011   0.0579   0.1316   0.1817   0.2370   0.2911   0.3487   0.5199
     0.5465   0.6658   0.7561   0.9139   0.9979   1.0189   1.0571   1.1177
     1.1514   1.2311   1.2787   1.4425   1.5652   1.6203   1.6529   1.8781
     1.9382   1.9916   2.1299   2.1690   2.2835   2.3575   2.4122   2.4408
     2.4919   2.6407   2.6942   2.8220   2.9629   2.9920   3.0366   3.0961
     3.1773   3.2451   3.2980   3.3581   3.4212   3.5230   3.5339   3.6257
     3.6834   5.9676   6.2423   6.2491   6.4983   6.9634   7.0504   7.2149
     7.3378   7.4059   7.4472   7.4857   7.5286   7.5575   7.6116   7.6307
     7.6757   7.8300   7.8588   7.9838   8.0062   8.0398   8.0632   8.1920
     8.2351

          k = 0.0171-0.0429-0.0185 ( 20251 PWs)   bands (ev):

   -60.0820 -60.0586 -60.0380 -60.0233 -59.8643 -59.8427 -59.8386 -59.8181
   -40.6315 -34.1075 -34.0920 -34.0800 -34.0638 -34.0496 -34.0476 -34.0351
   -34.0211 -33.9675 -33.9222 -33.9180 -33.9128 -33.8975 -33.8708 -33.8662
   -33.8492 -33.6873 -33.6565 -33.6377 -33.6273 -33.6094 -33.5996 -33.5695
   -33.5496 -13.5924 -13.5009 -13.0659 -12.9371 -12.8167 -12.6912 -12.5329
   -12.4733 -12.4143 -12.3628 -12.3495 -12.2999 -12.1684 -12.0815 -12.0625
   -11.9906 -11.8615 -11.8203 -11.8038 -11.7704  -0.9959  -0.9255  -0.7740
    -0.7274  -0.4662  -0.4416  -0.3470  -0.3077  -0.2171  -0.1910  -0.1407
    -0.1068   0.0643   0.1253   0.1969   0.2468   0.2720   0.3504   0.5174
     0.5478   0.6664   0.7562   0.9128   0.9975   1.0238   1.0605   1.1080
     1.1534   1.2311   1.2781   1.4386   1.5642   1.6204   1.6553   1.8808
     1.9353   1.9945   2.1438   2.1597   2.2829   2.3538   2.4105   2.4390
     2.4889   2.6436   2.6975   2.8256   2.9695   2.9745   3.0373   3.1185
     3.1634   3.2423   3.2988   3.3616   3.4130   3.5233   3.5386   3.6246
     3.6842   5.9677   6.2416   6.2482   6.4981   6.9635   7.0516   7.2152
     7.3342   7.4048   7.4498   7.4803   7.5360   7.5578   7.6111   7.6286
     7.6764   7.8287   7.8608   7.9864   8.0060   8.0428   8.0607   8.1922
     8.2352

     the Fermi energy is     5.7854 ev

!    total energy              =   -2562.59176413 Ry
     Harris-Foulkes estimate   =   -2562.59176420 Ry
     estimated scf accuracy    <       0.00000020 Ry

     total all-electron energy =    -18216.299785 Ry

     The total energy is the sum of the following terms:

     one-electron contribution =   -1213.75882754 Ry
     hartree contribution      =     702.18522010 Ry
     xc contribution           =    -344.75591435 Ry
     ewald contribution        =    -975.89815198 Ry
     one-center paw contrib.   =    -730.36376428 Ry
     smearing contrib. (-TS)   =      -0.00032607 Ry

     total magnetization       =     0.96 Bohr mag/cell
     absolute magnetization    =     1.38 Bohr mag/cell

     convergence has been achieved in  32 iterations

     Forces acting on atoms (Ry/au):

     atom    1 type  2   force =    -0.01345004   -0.00068643    0.00070831
     atom    2 type  2   force =     0.00739881    0.00004351    0.00061132
     atom    3 type  2   force =     0.04490619    0.01009714    0.02367300
     atom    4 type  2   force =    -0.04395844    0.01197559    0.02995558
     atom    5 type  1   force =     0.00136693    0.00048260    0.00027920
     atom    6 type  1   force =    -0.00286939    0.01678901   -0.02202328
     atom    7 type  1   force =     0.00037307    0.00025571    0.00028603
     atom    8 type  1   force =    -0.00012660    0.00010273    0.00027378
     atom    9 type  1   force =    -0.01276040   -0.02362411   -0.00886955
     atom   10 type  1   force =     0.01369907   -0.02819173   -0.01132870
     atom   11 type  1   force =     0.00337294   -0.00094146   -0.00444812
     atom   12 type  1   force =    -0.00245032   -0.00089097   -0.00354909
     atom   13 type  1   force =    -0.01224163    0.00253192   -0.00031263
     atom   14 type  1   force =     0.01292190    0.00233895   -0.00022084
     atom   15 type  2   force =    -0.00135191   -0.00030832   -0.00099224
     atom   16 type  2   force =    -0.00101391    0.00006572   -0.00090060
     atom   17 type  2   force =     0.05729650    0.01129293   -0.02523143
     atom   18 type  2   force =    -0.05765123    0.01305239   -0.03240525
     atom   19 type  1   force =     0.00214380    0.00203371   -0.00000456
     atom   20 type  1   force =    -0.00342283    0.02261849    0.02428481
     atom   21 type  1   force =     0.00123251    0.00084542   -0.00000187
     atom   22 type  1   force =    -0.00065335    0.00039985    0.00001723
     atom   23 type  1   force =    -0.01702650   -0.03098406    0.01112339
     atom   24 type  1   force =     0.01851888   -0.03772391    0.01421489
     atom   25 type  1   force =     0.00479018   -0.00125974    0.00409569
     atom   26 type  1   force =    -0.00379777   -0.00127136    0.00325525
     atom   27 type  1   force =    -0.02687802    0.01440179   -0.00104678
     atom   28 type  1   force =     0.03201572    0.01892556   -0.00184717
     atom   29 type  3   force =    -0.00038419   -0.00237093    0.00040365

     Total force =     0.156240     Total SCF correction =     0.001526

     BFGS Geometry Optimization

     number of scf cycles    =   1
     number of bfgs steps    =   0

     energy   new            =   -2562.5917641281 Ry

     new trust radius        =       0.0674101566 bohr
     new conv_thr            =       0.0000010000 Ry


ATOMIC_POSITIONS (crystal)
v        0.147452803   0.111059305   0.475119119
v        0.852270855   0.111142820   0.475111924
v        0.650117760   0.890017392   0.726822664
v        0.349925521   0.890232310   0.727288713
o        0.000062424   0.000784003   0.974959798
o        0.499868963   1.001192075   0.723305376
o        0.143830723   0.454964906   0.974929747
o        0.856180533   0.454947404   0.974928839
o        0.643230956   0.542361469   0.724250576
o        0.356811910   0.541838879   0.724068154
o        0.181662354   0.006338151   0.724725385
o        0.818379779   0.006343928   0.724792076
o        0.680949283   0.993843817   0.975032160
o        0.319081783   0.993821739   0.975038969
v        0.148005289   0.111102566  -0.025007030
v        0.851886671   0.111145361  -0.025000231
v        0.650683589   0.890154205   0.223194881
v        0.349300212   0.890355508   0.222662719
o        0.000097901   0.000961469   0.474938749
o        0.499843690   1.001859037   0.226740560
o        0.143869971   0.455032376   0.474908390
o        0.856156477   0.454981398   0.474909807
o        0.643036136   0.541519403   0.225733674
o        0.357032016   0.540748284   0.225963005
o        0.181727075   0.006301736   0.225359174
o        0.818318245   0.006300406   0.225296829
o        0.680280882   0.995201872   0.474977700
o        0.319953741   0.995719446   0.474918326
li       0.489982455   0.299728737   0.450029943



     Writing output data file crystal.save
     NEW-OLD atomic charge density approx. for the potential

     Check: negative/imaginary core charge=   -0.000005    0.000000

     total cpu time spent up to now is    12097.8 secs

     per-process dynamical memory:   158.5 Mb

     Self-consistent Calculation

     iteration #  1     ecut=    60.00 Ry     beta=0.70
     Davidson diagonalization with overlap
     ethr =  1.00E-06,  avg # of iterations =  6.2

     total cpu time spent up to now is    12877.6 secs

     total energy              =   -2562.59696360 Ry
     Harris-Foulkes estimate   =   -2562.60675732 Ry
     estimated scf accuracy    <       0.01255205 Ry

     total magnetization       =     0.96 Bohr mag/cell
     absolute magnetization    =     1.40 Bohr mag/cell

     iteration #  2     ecut=    60.00 Ry     beta=0.70
     Davidson diagonalization with overlap
     ethr =  5.53E-06,  avg # of iterations =  5.0

     total cpu time spent up to now is    13420.8 secs

     total energy              =   -2562.57288534 Ry
     Harris-Foulkes estimate   =   -2562.62982074 Ry
     estimated scf accuracy    <       0.37911265 Ry

     total magnetization       =     0.33 Bohr mag/cell
     absolute magnetization    =     0.94 Bohr mag/cell

     iteration #  3     ecut=    60.00 Ry     beta=0.70
     Davidson diagonalization with overlap
     ethr =  5.53E-06,  avg # of iterations =  5.0

     total cpu time spent up to now is    13949.7 secs

     total energy              =   -2562.59651698 Ry
     Harris-Foulkes estimate   =   -2562.61221803 Ry
     estimated scf accuracy    <       0.07855965 Ry

     total magnetization       =     1.00 Bohr mag/cell
     absolute magnetization    =     1.44 Bohr mag/cell

     iteration #  4     ecut=    60.00 Ry     beta=0.70
     Davidson diagonalization with overlap
     ethr =  5.53E-06,  avg # of iterations =  4.0

     total cpu time spent up to now is    14399.6 secs

     total energy              =   -2562.60267504 Ry
     Harris-Foulkes estimate   =   -2562.60515154 Ry
     estimated scf accuracy    <       0.01018062 Ry

     total magnetization       =     0.93 Bohr mag/cell
     absolute magnetization    =     1.36 Bohr mag/cell

     iteration #  5     ecut=    60.00 Ry     beta=0.70
     Davidson diagonalization with overlap
     ethr =  4.48E-06,  avg # of iterations =  4.3

     total cpu time spent up to now is    14750.7 secs

     total energy              =   -2562.60286314 Ry
     Harris-Foulkes estimate   =   -2562.60573440 Ry
     estimated scf accuracy    <       0.02057511 Ry

     total magnetization       =     0.96 Bohr mag/cell
     absolute magnetization    =     1.39 Bohr mag/cell

     iteration #  6     ecut=    60.00 Ry     beta=0.70
     Davidson diagonalization with overlap
     ethr =  4.48E-06,  avg # of iterations =  2.1

     total cpu time spent up to now is    15077.1 secs

     total energy              =   -2562.60407774 Ry
     Harris-Foulkes estimate   =   -2562.60431167 Ry
     estimated scf accuracy    <       0.00119804 Ry

     total magnetization       =     0.95 Bohr mag/cell
     absolute magnetization    =     1.39 Bohr mag/cell

     iteration #  7     ecut=    60.00 Ry     beta=0.70
     Davidson diagonalization with overlap
     ethr =  5.28E-07,  avg # of iterations =  3.9

     total cpu time spent up to now is    15456.6 secs

     total energy              =   -2562.60422458 Ry
     Harris-Foulkes estimate   =   -2562.60434920 Ry
     estimated scf accuracy    <       0.00060539 Ry

     total magnetization       =     0.94 Bohr mag/cell
     absolute magnetization    =     1.38 Bohr mag/cell

     iteration #  8     ecut=    60.00 Ry     beta=0.70
     Davidson diagonalization with overlap
     ethr =  2.67E-07,  avg # of iterations =  2.0

     total cpu time spent up to now is    15785.5 secs

     total energy              =   -2562.60427441 Ry
     Harris-Foulkes estimate   =   -2562.60430991 Ry
     estimated scf accuracy    <       0.00016379 Ry

     total magnetization       =     0.95 Bohr mag/cell
     absolute magnetization    =     1.39 Bohr mag/cell

     iteration #  9     ecut=    60.00 Ry     beta=0.70
     Davidson diagonalization with overlap
     ethr =  7.22E-08,  avg # of iterations =  2.2

     total cpu time spent up to now is    16132.4 secs

     total energy              =   -2562.60429329 Ry
     Harris-Foulkes estimate   =   -2562.60430335 Ry
     estimated scf accuracy    <       0.00004487 Ry

     total magnetization       =     0.94 Bohr mag/cell
     absolute magnetization    =     1.39 Bohr mag/cell

     iteration # 10     ecut=    60.00 Ry     beta=0.70
     Davidson diagonalization with overlap
     ethr =  1.98E-08,  avg # of iterations =  2.0

     total cpu time spent up to now is    16463.6 secs

     total energy              =   -2562.60429886 Ry
     Harris-Foulkes estimate   =   -2562.60430188 Ry
     estimated scf accuracy    <       0.00002258 Ry

     total magnetization       =     0.94 Bohr mag/cell
     absolute magnetization    =     1.39 Bohr mag/cell

     iteration # 11     ecut=    60.00 Ry     beta=0.70
     Davidson diagonalization with overlap
     ethr =  9.95E-09,  avg # of iterations =  2.2

     total cpu time spent up to now is    16798.8 secs

     total energy              =   -2562.60430023 Ry
     Harris-Foulkes estimate   =   -2562.60430434 Ry
     estimated scf accuracy    <       0.00002701 Ry

     total magnetization       =     0.95 Bohr mag/cell
     absolute magnetization    =     1.40 Bohr mag/cell

[...]
     0.9018   0.9506   1.0037   1.0622   1.1163   1.1557   1.3132   1.3956
     1.4411   1.5189   1.5827   1.6315   1.6501   1.6876   1.7683   1.7956
     1.8630   1.8839   1.9676   2.0491   2.1213   2.1351   2.1827   2.2479
     2.2718   2.3246   2.5399   2.5919   2.6765   2.7329   2.7610   2.8194
     2.9401   2.9752   3.0377   3.0529   3.1891   3.2253   3.2687   3.3481
     3.3882   5.8481   6.0932   6.1424   6.5147   6.8329   6.9298   7.0936
     7.1176   7.1665   7.2090   7.3455   7.3699   7.4232   7.4598   7.4943
     7.6651   7.7146   7.8299   7.8583   7.9097   7.9444   7.9985   8.0100
     8.1576

          k =-0.0057-0.0429 0.0185 ( 20257 PWs)   bands (ev):

   -60.1718 -60.1458 -60.1216 -60.1001 -59.9403 -59.9388 -59.8633 -59.8619
   -39.5389 -34.2033 -34.1797 -34.1671 -34.1392 -34.1240 -34.1199 -34.0457
   -34.0248 -34.0212 -33.9968 -33.9917 -33.9758 -33.9703 -33.9329 -33.9322
   -33.9164 -33.7514 -33.7345 -33.6952 -33.6716 -33.6644 -33.6464 -33.6354
   -33.6093 -13.6342 -13.4863 -13.0815 -12.9323 -12.6801 -12.6206 -12.5804
   -12.5290 -12.5054 -12.4546 -12.4450 -12.3819 -12.2141 -12.1272 -12.0178
   -11.9771 -11.9540 -11.9417 -11.8910 -11.8724  -1.0172  -0.8986  -0.8019
    -0.7352  -0.5357  -0.4219  -0.3405  -0.2645  -0.2366  -0.1698  -0.1089
    -0.0452   0.0458   0.1401   0.1913   0.2691   0.3145   0.3471   0.4171
     0.4820   0.5746   0.8237   0.8448   0.9052   0.9916   1.0483   1.0968
     1.1258   1.1856   1.3041   1.4363   1.4919   1.5454   1.6147   1.7227
     1.9659   2.0416   2.1269   2.2527   2.3078   2.3613   2.4318   2.5015
     2.5408   2.6070   2.6931   2.7131   2.7253   2.9176   3.0779   3.1125
     3.1556   3.2256   3.2721   3.3333   3.3821   3.4379   3.4673   3.5162
     3.5740   5.8896   6.1113   6.1611   6.5117   6.8774   6.9732   7.1072
     7.1232   7.2102   7.3045   7.3740   7.4083   7.4315   7.4930   7.5202
     7.6881   7.7328   7.7962   7.8305   7.9154   7.9960   8.0159   8.0470
     8.1736

          k =-0.0057 0.0429-0.0185 ( 20257 PWs)   bands (ev):

   -60.1718 -60.1458 -60.1216 -60.1001 -59.9403 -59.9388 -59.8633 -59.8619
   -39.5389 -34.2033 -34.1797 -34.1671 -34.1392 -34.1241 -34.1199 -34.0457
   -34.0248 -34.0212 -33.9968 -33.9916 -33.9758 -33.9703 -33.9329 -33.9322
   -33.9164 -33.7514 -33.7345 -33.6952 -33.6716 -33.6644 -33.6464 -33.6354
   -33.6093 -13.6342 -13.4864 -13.0815 -12.9324 -12.6799 -12.6205 -12.5804
   -12.5288 -12.5049 -12.4560 -12.4454 -12.3818 -12.2135 -12.1268 -12.0176
   -11.9775 -11.9533 -11.9433 -11.8907 -11.8721  -1.0174  -0.8980  -0.8025
    -0.7336  -0.5377  -0.4162  -0.3484  -0.2682  -0.2254  -0.1717  -0.1201
    -0.0392   0.0617   0.1173   0.1982   0.2836   0.2985   0.3431   0.4323
     0.4744   0.5713   0.8146   0.8484   0.9150   0.9983   1.0339   1.0929
     1.1422   1.1892   1.2985   1.4260   1.4984   1.5477   1.6105   1.7339
     1.9695   2.0360   2.1218   2.2511   2.3021   2.3603   2.4309   2.5082
     2.5437   2.5946   2.6883   2.7179   2.7373   2.9186   3.0959   3.1056
     3.1352   3.2311   3.2670   3.3380   3.3758   3.4385   3.4659   3.5189
     3.5803   5.8894   6.1107   6.1626   6.5118   6.8760   6.9706   7.1054
     7.1244   7.2075   7.3162   7.3647   7.4038   7.4389   7.4873   7.5263
     7.6939   7.7299   7.7892   7.8376   7.9093   8.0022   8.0145   8.0449
     8.1762

          k = 0.0057-0.0429-0.0185 ( 20257 PWs)   bands (ev):

   -60.1718 -60.1458 -60.1216 -60.1001 -59.9403 -59.9388 -59.8633 -59.8619
   -39.5389 -34.2033 -34.1797 -34.1671 -34.1392 -34.1241 -34.1199 -34.0457
   -34.0248 -34.0212 -33.9968 -33.9917 -33.9758 -33.9703 -33.9329 -33.9322
   -33.9164 -33.7514 -33.7345 -33.6952 -33.6716 -33.6644 -33.6464 -33.6354
   -33.6093 -13.6341 -13.4863 -13.0815 -12.9325 -12.6797 -12.6205 -12.5804
   -12.5289 -12.5049 -12.4564 -12.4449 -12.3818 -12.2134 -12.1269 -12.0176
   -11.9775 -11.9532 -11.9434 -11.8906 -11.8723  -1.0174  -0.8979  -0.8026
    -0.7336  -0.5380  -0.4161  -0.3482  -0.2677  -0.2260  -0.1726  -0.1183
    -0.0397   0.0610   0.1172   0.1979   0.2834   0.2994   0.3435   0.4323
     0.4745   0.5710   0.8133   0.8492   0.9149   0.9984   1.0337   1.0929
     1.1423   1.1892   1.2984   1.4265   1.4982   1.5480   1.6103   1.7337
     1.9694   2.0365   2.1213   2.2501   2.3032   2.3612   2.4310   2.5083
     2.5428   2.5941   2.6885   2.7177   2.7382   2.9179   3.0963   3.1051
     3.1357   3.2313   3.2663   3.3375   3.3757   3.4383   3.4668   3.5189
     3.5802   5.8893   6.1108   6.1628   6.5117   6.8760   6.9706   7.1048
     7.1251   7.2077   7.3158   7.3650   7.4048   7.4378   7.4887   7.5258
     7.6933   7.7309   7.7882   7.8376   7.9094   8.0010   8.0154   8.0445
     8.1761

          k =-0.0171-0.0143 0.0185 ( 20254 PWs)   bands (ev):

   -60.1718 -60.1458 -60.1216 -60.1001 -59.9404 -59.9388 -59.8633 -59.8619
   -39.5389 -34.2021 -34.1785 -34.1660 -34.1380 -34.1227 -34.1186 -34.0456
   -34.0237 -34.0203 -33.9969 -33.9916 -33.9758 -33.9702 -33.9332 -33.9322
   -33.9165 -33.7513 -33.7344 -33.6951 -33.6716 -33.6644 -33.6464 -33.6357
   -33.6094 -13.6678 -13.5546 -13.1050 -12.9956 -12.7067 -12.6063 -12.6045
   -12.5470 -12.5109 -12.4855 -12.4730 -12.4055 -12.1878 -12.1166 -12.0161
   -11.9962 -11.9643 -11.9585 -11.9251 -11.8935  -1.0094  -0.9280  -0.7715
    -0.7054  -0.4471  -0.3570  -0.2744  -0.1997  -0.1497  -0.0915  -0.0369
     0.0734   0.3125   0.4818   0.5381   0.6802   0.7633   0.7884   0.8431
     0.9014   0.9226   1.0069   1.0309   1.1016   1.2797   1.3416   1.3933
     1.4398   1.5251   1.5831   1.6162   1.6525   1.7316   1.7681   1.7814
     1.8152   1.8490   1.9580   2.0763   2.1007   2.1414   2.1793   2.2242
     2.2719   2.3400   2.5108   2.6202   2.6740   2.7080   2.7615   2.8355
     2.9040   2.9479   3.0366   3.0683   3.1970   3.2156   3.2889   3.3582
     3.3974   5.8557   6.1154   6.1501   6.5407   6.8377   6.9297   7.1133
     7.1244   7.1815   7.2533   7.3073   7.3881   7.4049   7.4390   7.5078
     7.5315   7.6619   7.7608   7.8624   7.9245   7.9693   8.0190   8.0727
     8.1456

          k =-0.0171 0.0143-0.0185 ( 20254 PWs)   bands (ev):

   -60.1718 -60.1458 -60.1216 -60.1001 -59.9404 -59.9388 -59.8633 -59.8619
   -39.5389 -34.2021 -34.1785 -34.1660 -34.1380 -34.1227 -34.1186 -34.0456
   -34.0237 -34.0203 -33.9969 -33.9916 -33.9758 -33.9702 -33.9332 -33.9322
   -33.9165 -33.7513 -33.7344 -33.6951 -33.6716 -33.6644 -33.6464 -33.6356
   -33.6094 -13.6678 -13.5546 -13.1049 -12.9958 -12.7065 -12.6059 -12.6045
   -12.5465 -12.5105 -12.4873 -12.4732 -12.4054 -12.1873 -12.1162 -12.0164
   -11.9963 -11.9646 -11.9587 -11.9249 -11.8933  -1.0096  -0.9274  -0.7722
    -0.7039  -0.4504  -0.3486  -0.2817  -0.2039  -0.1484  -0.0816  -0.0317
     0.0574   0.3160   0.4546   0.5815   0.6850   0.7380   0.7910   0.8422
     0.8958   0.9443   0.9839   1.0452   1.0961   1.2462   1.3744   1.3979
     1.4597   1.5433   1.5597   1.6137   1.6375   1.7213   1.7617   1.7923
     1.8170   1.8660   1.9559   2.0690   2.1085   2.1364   2.1809   2.2189
     2.2635   2.3447   2.5147   2.6102   2.6911   2.7235   2.7569   2.7990
     2.9029   2.9682   3.0378   3.0662   3.1852   3.2078   3.2962   3.3792
     3.3879   5.8555   6.1140   6.1521   6.5410   6.8375   6.9245   7.1114
     7.1246   7.1866   7.2492   7.3223   7.3709   7.3997   7.4508   7.5051
     7.5397   7.6555   7.7634   7.8633   7.9174   7.9704   8.0232   8.0694
     8.1493

          k = 0.0171-0.0143-0.0185 ( 20254 PWs)   bands (ev):

   -60.1718 -60.1458 -60.1216 -60.1001 -59.9404 -59.9388 -59.8633 -59.8619
   -39.5389 -34.2021 -34.1785 -34.1660 -34.1380 -34.1227 -34.1186 -34.0456
   -34.0237 -34.0203 -33.9969 -33.9916 -33.9758 -33.9702 -33.9332 -33.9322
   -33.9165 -33.7513 -33.7344 -33.6951 -33.6716 -33.6644 -33.6464 -33.6357
   -33.6094 -13.6678 -13.5546 -13.1049 -12.9958 -12.7064 -12.6058 -12.6045
   -12.5467 -12.5105 -12.4873 -12.4730 -12.4054 -12.1872 -12.1162 -12.0164
   -11.9964 -11.9647 -11.9587 -11.9248 -11.8934  -1.0097  -0.9273  -0.7723
    -0.7039  -0.4503  -0.3488  -0.2816  -0.2038  -0.1496  -0.0806  -0.0323
     0.0577   0.3160   0.4550   0.5810   0.6863   0.7381   0.7917   0.8425
     0.8957   0.9439   0.9849   1.0428   1.0954   1.2461   1.3743   1.3976
     1.4600   1.5429   1.5593   1.6133   1.6382   1.7215   1.7617   1.7929
     1.8166   1.8668   1.9562   2.0677   2.1085   2.1367   2.1815   2.2187
     2.2643   2.3444   2.5139   2.6115   2.6912   2.7226   2.7575   2.7991
     2.9037   2.9667   3.0375   3.0662   3.1850   3.2082   3.2962   3.3795
     3.3874   5.8553   6.1142   6.1523   6.5409   6.8377   6.9243   7.1117
     7.1244   7.1870   7.2489   7.3216   7.3716   7.3997   7.4520   7.5044
     7.5392   7.6549   7.7635   7.8636   7.9177   7.9709   8.0219   8.0699
     8.1494

          k =-0.0171-0.0429 0.0185 ( 20251 PWs)   bands (ev):

   -60.1718 -60.1458 -60.1216 -60.1001 -59.9403 -59.9388 -59.8633 -59.8619
   -39.5389 -34.2033 -34.1797 -34.1671 -34.1392 -34.1240 -34.1199 -34.0457
   -34.0248 -34.0212 -33.9968 -33.9916 -33.9759 -33.9703 -33.9331 -33.9321
   -33.9164 -33.7513 -33.7344 -33.6951 -33.6716 -33.6643 -33.6464 -33.6356
   -33.6093 -13.6162 -13.5106 -13.0645 -12.9620 -12.6635 -12.5933 -12.5762
   -12.5299 -12.5014 -12.4678 -12.4581 -12.3885 -12.2142 -12.1274 -12.0219
   -11.9745 -11.9560 -11.9347 -11.8917 -11.8747  -1.0106  -0.9244  -0.8026
    -0.7371  -0.4828  -0.4262  -0.3085  -0.2696  -0.2334  -0.2078  -0.1079
    -0.0994   0.0341   0.1239   0.2267   0.2589   0.2986   0.3421   0.4643
     0.4994   0.6090   0.7071   0.8325   0.9093   1.0206   1.0927   1.1105
     1.1398   1.2140   1.2549   1.3858   1.5508   1.5997   1.7251   1.8441
     1.9120   1.9571   2.1331   2.1573   2.2776   2.3161   2.3698   2.3962
     2.4845   2.6023   2.7056   2.8020   2.8640   2.9304   3.0498   3.1076
     3.1671   3.1970   3.2421   3.3352   3.4048   3.4462   3.4830   3.5196
     3.5793   5.8930   6.1400   6.1554   6.5361   6.8814   6.9602   7.1213
     7.1301   7.2389   7.3162   7.3804   7.4107   7.4465   7.5001   7.5368
     7.5819   7.6872   7.7252   7.8495   7.9029   7.9953   8.0112   8.0934
     8.1676

          k =-0.0171 0.0429-0.0185 ( 20251 PWs)   bands (ev):

   -60.1718 -60.1458 -60.1216 -60.1001 -59.9403 -59.9388 -59.8633 -59.8619
   -39.5389 -34.2033 -34.1797 -34.1671 -34.1392 -34.1240 -34.1199 -34.0457
   -34.0248 -34.0212 -33.9968 -33.9916 -33.9759 -33.9703 -33.9331 -33.9321
   -33.9164 -33.7513 -33.7344 -33.6951 -33.6716 -33.6643 -33.6464 -33.6356
   -33.6093 -13.6162 -13.5106 -13.0644 -12.9621 -12.6632 -12.5932 -12.5759
   -12.5297 -12.5003 -12.4703 -12.4582 -12.3883 -12.2136 -12.1270 -12.0217
   -11.9746 -11.9560 -11.9357 -11.8914 -11.8744  -1.0109  -0.9237  -0.8033
    -0.7355  -0.4874  -0.4173  -0.3222  -0.2710  -0.2268  -0.1903  -0.1372
    -0.0924   0.0555   0.1047   0.2307   0.2711   0.2938   0.3298   0.4771
     0.4939   0.6015   0.7080   0.8328   0.9147   1.0241   1.0773   1.1255
     1.1547   1.1971   1.2408   1.4083   1.5364   1.6119   1.7217   1.8432
     1.9141   1.9685   2.1109   2.1533   2.2749   2.3240   2.3655   2.4068
     2.4816   2.5956   2.7109   2.7963   2.8695   2.9386   3.0573   3.1014
     3.1622   3.1835   3.2501   3.3333   3.4032   3.4476   3.4741   3.5301
     3.5834   5.8927   6.1370   6.1593   6.5361   6.8802   6.9574   7.1195
     7.1309   7.2351   7.3338   7.3712   7.4031   7.4483   7.4964   7.5416
     7.5908   7.6854   7.7213   7.8541   7.8962   7.9976   8.0135   8.0896
     8.1714

          k = 0.0171-0.0429-0.0185 ( 20251 PWs)   bands (ev):

   -60.1718 -60.1458 -60.1216 -60.1001 -59.9403 -59.9388 -59.8633 -59.8619
   -39.5389 -34.2033 -34.1797 -34.1671 -34.1392 -34.1240 -34.1199 -34.0457
   -34.0248 -34.0211 -33.9968 -33.9916 -33.9759 -33.9703 -33.9331 -33.9321
   -33.9164 -33.7513 -33.7344 -33.6951 -33.6716 -33.6643 -33.6464 -33.6356
   -33.6093 -13.6161 -13.5106 -13.0644 -12.9622 -12.6631 -12.5932 -12.5759
   -12.5299 -12.5003 -12.4706 -12.4577 -12.3883 -12.2135 -12.1271 -12.0218
   -11.9746 -11.9560 -11.9358 -11.8912 -11.8745  -1.0109  -0.9236  -0.8033
    -0.7355  -0.4877  -0.4172  -0.3218  -0.2705  -0.2282  -0.1901  -0.1355
    -0.0931   0.0550   0.1049   0.2308   0.2707   0.2931   0.3313   0.4771
     0.4941   0.6010   0.7086   0.8318   0.9146   1.0244   1.0775   1.1252
     1.1553   1.1970   1.2407   1.4083   1.5358   1.6120   1.7215   1.8432
     1.9143   1.9685   2.1109   2.1532   2.2760   2.3249   2.3641   2.4074
     2.4816   2.5947   2.7109   2.7968   2.8701   2.9380   3.0572   3.1016
     3.1628   3.1821   3.2501   3.3331   3.4033   3.4476   3.4746   3.5302
     3.5830   5.8926   6.1373   6.1593   6.5360   6.8803   6.9573   7.1194
     7.1312   7.2351   7.3337   7.3713   7.4031   7.4480   7.4982   7.5406
     7.5910   7.6852   7.7210   7.8542   7.8964   7.9974   8.0129   8.0894
     8.1713

     the Fermi energy is     5.6994 ev

!    total energy              =   -2562.62179364 Ry
     Harris-Foulkes estimate   =   -2562.62179365 Ry
     estimated scf accuracy    <          6.5E-09 Ry

     total all-electron energy =    -18216.329814 Ry

     The total energy is the sum of the following terms:

     one-electron contribution =   -1210.73689441 Ry
     hartree contribution      =     700.36786528 Ry
     xc contribution           =    -344.64348627 Ry
     ewald contribution        =    -977.24513404 Ry
     one-center paw contrib.   =    -730.36274703 Ry
     smearing contrib. (-TS)   =      -0.00139718 Ry

     total magnetization       =     0.97 Bohr mag/cell
     absolute magnetization    =     1.47 Bohr mag/cell

     convergence has been achieved in  14 iterations

     Forces acting on atoms (Ry/au):

     atom    1 type  2   force =    -0.00046890   -0.00036858   -0.00005050
     atom    2 type  2   force =     0.00044133    0.00021370   -0.00015216
     atom    3 type  2   force =     0.00053180    0.00018044   -0.00013046
     atom    4 type  2   force =    -0.00027693   -0.00026161    0.00002866
     atom    5 type  1   force =     0.00017317    0.00024946    0.00002687
     atom    6 type  1   force =    -0.00007401    0.00005942    0.00023223
     atom    7 type  1   force =     0.00011921   -0.00013519    0.00004366
     atom    8 type  1   force =     0.00019944    0.00048466   -0.00003335
     atom    9 type  1   force =     0.00010015    0.00045632   -0.00006124
     atom   10 type  1   force =     0.00001236    0.00022220   -0.00030583
     atom   11 type  1   force =    -0.00019330    0.00018092   -0.00075723
     atom   12 type  1   force =     0.00012468    0.00043056   -0.00069540
     atom   13 type  1   force =    -0.00069458    0.00023162    0.00041035
     atom   14 type  1   force =     0.00030356   -0.00038611    0.00049602
     atom   15 type  2   force =     0.00050187    0.00049933    0.00007358
     atom   16 type  2   force =    -0.00047917    0.00024903    0.00007628
     atom   17 type  2   force =     0.00041814    0.00012977    0.00014482
     atom   18 type  2   force =    -0.00033301   -0.00056968    0.00015435
     atom   19 type  1   force =    -0.00017995    0.00036920    0.00029891
     atom   20 type  1   force =    -0.00001904   -0.00068944   -0.00024427
     atom   21 type  1   force =     0.00035057   -0.00046825   -0.00010279
     atom   22 type  1   force =    -0.00034605   -0.00070527   -0.00013526
     atom   23 type  1   force =    -0.00009834    0.00035610   -0.00012910
     atom   24 type  1   force =     0.00029993    0.00024014    0.00004154
     atom   25 type  1   force =     0.00005590   -0.00015811    0.00074708
     atom   26 type  1   force =    -0.00008923    0.00022704    0.00069507
     atom   27 type  1   force =    -0.00005147   -0.00025271   -0.00024523
     atom   28 type  1   force =    -0.00042794   -0.00074773   -0.00037869
     atom   29 type  3   force =     0.00009980   -0.00003725   -0.00004790

     Total force =     0.003188     Total SCF correction =     0.000288

     bfgs converged in  40 scf cycles and  39 bfgs steps
     (criteria: energy < 0.10E-03, force < 0.10E-02)

     End of BFGS Geometry Optimization

     Final energy   =   -2562.6217936440 Ry
Begin final coordinates

ATOMIC_POSITIONS (crystal)
v        0.147915885   0.106917464   0.474168698
v        0.851750798   0.111378953   0.474314454
v        0.648514214   0.896061954   0.722796856
v        0.352653382   0.883245715   0.721694241
o        0.001086029  -0.000444872   0.974267537
o        0.499175640   1.016145828   0.712753694
o        0.150871036   0.439653251   0.973481470
o        0.854781183   0.450436517   0.973818512
o        0.636755657   0.551835339   0.713756238
o        0.368375488   0.539144950   0.696181741
o        0.183578898  -0.009297137   0.722693319
o        0.819162159  -0.000563758   0.724245983
o        0.678203116   0.997410645   0.973958626
o        0.323492444   0.967477076   0.973884711
v        0.149831398   0.095226241  -0.026103338
v        0.851183153   0.106672350  -0.025936369
v        0.648503524   0.897111041   0.225474026
v        0.352711112   0.884435459   0.226429230
o        0.000442977  -0.001685937   0.473521380
o        0.499179323   1.017946526   0.235409182
o        0.143194623   0.450808303   0.474699667
o        0.857862170   0.454930624   0.474803408
o        0.636825248   0.552916168   0.234733743
o        0.368229757   0.540381956   0.252376228
o        0.183813172  -0.007601493   0.225360475
o        0.818958150   0.000764563   0.224023697
o        0.680036350   1.015878923   0.474290904
o        0.323957267   1.022945251   0.474282719
li       0.458955849   0.319868098   0.474618966
End final coordinates



     Writing output data file crystal.save
 
     init_run     :    152.49s CPU    153.08s WALL (       1 calls)
     electrons    : 274327.50s CPU 276627.58s WALL (      40 calls)
     update_pot   :    466.38s CPU    466.69s WALL (      39 calls)
     forces       :   2752.49s CPU   2762.01s WALL (      40 calls)

     Called by init_run:
     wfcinit      :    131.10s CPU    131.61s WALL (       1 calls)
     potinit      :      6.55s CPU      6.58s WALL (       1 calls)

     Called by electrons:
     c_bands      : 212746.23s CPU 214767.26s WALL (     729 calls)
     sum_band     :  50889.06s CPU  51124.51s WALL (     729 calls)
     v_of_rho     :    940.35s CPU    954.66s WALL (     752 calls)
     newd         :   7970.54s CPU   7985.33s WALL (     752 calls)
     mix_rho      :    638.72s CPU    640.72s WALL (     729 calls)

     Called by c_bands:
     init_us_2    :    673.53s CPU    675.52s WALL (   47968 calls)
     cegterg      : 210100.81s CPU 211802.04s WALL (   23328 calls)

     Called by *egterg:
     h_psi        : 169190.00s CPU 169413.40s WALL (   85571 calls)
     s_psi        :   8802.01s CPU   8811.00s WALL (   85571 calls)
     g_psi        :    390.62s CPU    391.01s WALL (   62211 calls)
     cdiaghg      :   5961.16s CPU   5969.30s WALL (   83747 calls)

     Called by h_psi:
     add_vuspsi   :   8764.81s CPU   8774.23s WALL (   85571 calls)

     General routines
     calbec       :  13494.13s CPU  13507.38s WALL (  110179 calls)
     fft          :   1303.36s CPU   1310.10s WALL (   23808 calls)
     ffts         :     28.65s CPU     28.72s WALL (    2962 calls)
     fftw         : 160411.90s CPU 160552.08s WALL (18485026 calls)
     interpolate  :    196.63s CPU    196.78s WALL (    2962 calls)
     davcio       :      1.87s CPU    501.48s WALL (   71296 calls)
 
     Parallel routines
     fft_scatter  :  12026.94s CPU  12114.85s WALL (18511796 calls)
 
     PAW routines
     PAW_pot      :   1489.64s CPU   1493.56s WALL (     752 calls)
     PAW_ddot     :    423.02s CPU    423.56s WALL (   20697 calls)
 
     PWSCF        :     3d    5h15m CPU        3d    5h54m WALL

 
   This run was terminated on:   0:23:18  27May2013            

=------------------------------------------------------------------------------=
   JOB DONE.
=------------------------------------------------------------------------------=
