
     Program PWSCF v.4.3.2      starts on 19Oct2012 at 20: 6: 8 

     This program is part of the open-source Quantum ESPRESSO suite
     for quantum simulation of materials; please cite
         "P. Giannozzi et al., J. Phys.:Condens. Matter 21 395502 (2009);
          URL http://www.quantum-espresso.org", 
     in publications or presentations arising from this work. More details at
     http://www.quantum-espresso.org/wiki/index.php/Citing_Quantum-ESPRESSO

     Parallel version (MPI), running on    12 processors
     R & G space division:  proc/pool =   12

     Current dimensions of program PWSCF are:
     Max number of different atomic species (ntypx) = 10
     Max number of k-points (npk) =  40000
     Max angular momentum in pseudopotentials (lmaxx) =  3
     Waiting for input...
     Reading input from stdin
               file c.UPF: wavefunction(s)  2P renormalized
               file s.UPF: wavefunction(s)  3P renormalized
               file f.UPF: wavefunction(s)  2S 2P renormalized

     Subspace diagonalization in iterative solution of the eigenvalue problem:
     a serial algorithm will be used

 
     Parallelization info
     --------------------
     sticks:   dense  smooth     PW     G-vecs:    dense   smooth      PW
     Min         669     445    117                46007    25024    3347
     Max         670     446    118                46008    25061    3349
     Sum        8039    5349   1407               552095   300543   40169
 

     Title: 
     epxars_2                                                                   


     bravais-lattice index     =            0
     lattice parameter (alat)  =       1.0000  a.u.
     unit-cell volume          =    4786.9741 (a.u.)^3
     number of atoms/cell      =           46
     number of atomic types    =            4
     number of electrons       =       240.00
     number of Kohn-Sham states=          120
     kinetic-energy cutoff     =      60.0000  Ry
     charge density cutoff     =     360.0000  Ry
     convergence threshold     =      1.0E-08
     mixing beta               =       0.7000
     number of iterations used =            8  plain     mixing
     Exchange-correlation      =  NOX  PW   PW86 PBC ( 0 417 4 0)
     EXX-fraction              =        0.00
     nstep                     =           50


     celldm(1)=   1.000000  celldm(2)=   0.000000  celldm(3)=   0.000000
     celldm(4)=   0.000000  celldm(5)=   0.000000  celldm(6)=   0.000000

     crystal axes: (cart. coord. in units of alat)
               a(1) = (  19.356750  -0.002451  -0.101937 )  
               a(2) = (  -0.001912  14.506010  -0.005001 )  
               a(3) = (  -4.074829  -0.005154  17.069745 )  

     reciprocal axes: (cart. coord. in units 2 pi/alat)
               b(1) = (  0.051727  0.000011  0.012348 )  
               b(2) = (  0.000009  0.068937  0.000023 )  
               b(3) = (  0.000309  0.000020  0.058657 )  


     PseudoPot. # 1 for  C read from file:
     ./c.UPF
     MD5 check sum: 59d3a4af416b94ce846c69cefa103580
     Pseudo is Projector augmented-wave + core cor, Zval =  4.0
     Generated using "atomic" code by A. Dal Corso  (Quantum ESPRESSO distribution)
     Shape of augmentation charge: BESSEL
     Using radial grid of 1073 points,  4 beta functions with: 
                l(1) =   0
                l(2) =   0
                l(3) =   1
                l(4) =   1
     Q(r) pseudized with 0 coefficients 


     PseudoPot. # 2 for  S read from file:
     ./s.UPF
     MD5 check sum: f30e8e98a43cb1acb672e04b450f70db
     Pseudo is Projector augmented-wave + core cor, Zval =  6.0
     Generated using "atomic" code by A. Dal Corso  (Quantum ESPRESSO distribution)
     Shape of augmentation charge: PSQ
     Using radial grid of 1151 points,  4 beta functions with: 
                l(1) =   0
                l(2) =   0
                l(3) =   1
                l(4) =   1
     Q(r) pseudized with 0 coefficients 


     PseudoPot. # 3 for  F read from file:
     ./f.UPF
     MD5 check sum: 8cc698429acbef515959d6d1ea0e1135
     Pseudo is Projector augmented-wave + core cor, Zval =  7.0
     Generated using "atomic" code by A. Dal Corso  (Quantum ESPRESSO distribution)
     Shape of augmentation charge: PSQ
     Using radial grid of 1105 points,  4 beta functions with: 
                l(1) =   0
                l(2) =   0
                l(3) =   1
                l(4) =   1
     Q(r) pseudized with 0 coefficients 


     PseudoPot. # 4 for As read from file:
     ./as.UPF
     MD5 check sum: c4211a47c95e243bf5c6b176bad74a68
     Pseudo is Projector augmented-wave + core cor, Zval =  5.0
     Generated using "atomic" code by A. Dal Corso  (Quantum ESPRESSO distribution)
     Shape of augmentation charge: PSQ
     Using radial grid of 1209 points,  4 beta functions with: 
                l(1) =   0
                l(2) =   0
                l(3) =   1
                l(4) =   1
     Q(r) pseudized with 0 coefficients 


     atomic species   valence    mass     pseudopotential
        c              4.00    12.01070      C( 1.00)
        s              6.00    32.06500      S( 1.00)
        f              7.00    18.99840      F( 1.00)
        as             5.00    74.92160     As( 1.00)

     No symmetry found

   Cartesian axes

     site n.     atom                  positions (alat units)
         1           as  tau(   1) = (  -1.8783287  15.8046255   8.1990352  )
         2           as  tau(   2) = (  -3.9170893  -1.3055406  16.7471046  )
         3           as  tau(   3) = (  17.6602082   7.3770314   6.6545320  )
         4           as  tau(   4) = (  15.6160555   7.1205564  15.1848310  )
         5           c   tau(   5) = (  14.4379992   3.4308627   8.9349873  )
         6           c   tau(   6) = (  16.4726744  11.0665330   0.4107896  )
         7           c   tau(   7) = (   3.2416057   6.9313169  13.1857654  )
         8           c   tau(   8) = (   5.2761059   7.5688927   4.6463336  )
         9           c   tau(   9) = (   1.9324640   7.7842459  11.0527951  )
        10           c   tau(  10) = (   3.9640766   6.7179819   2.5135323  )
        11           c   tau(  11) = (   0.4471850   6.1527700   9.6521813  )
        12           c   tau(  12) = (   2.4808773   8.3513697   1.1131149  )
        13           c   tau(  13) = (  12.3381195   2.4681695  10.1561440  )
        14           c   tau(  14) = (  14.3747557  12.0275741   1.6366382  )
        15           c   tau(  15) = (  10.3162808   4.0320289  10.8191614  )
        16           c   tau(  16) = (  12.3477698  10.4664652   2.2891881  )
        17           c   tau(  17) = (  10.4233363   6.5979895  10.2650416  )
        18           c   tau(  18) = (  12.4557085   7.8997194   1.7347630  )
        19           c   tau(  19) = (  12.5050678   7.5502019   8.9405751  )
        20           c   tau(  20) = (  14.5395968   6.9477152   0.4122986  )
        21           c   tau(  21) = (  14.5167925   6.0023974   8.3155485  )
        22           c   tau(  22) = (  12.4751502   8.4910017  16.8557275  )
        23           c   tau(  23) = (   0.3179738   3.5932523  10.3146268  )
        24           c   tau(  24) = (   2.3533596  10.9098589   1.7780759  )
        25           c   tau(  25) = (   1.6502858   2.7377414  12.3905139  )
        26           c   tau(  26) = (   3.6846142  11.7629000   3.8562070  )
        27           c   tau(  27) = (   3.1270821   4.3847597  13.8383527  )
        28           c   tau(  28) = (   5.1627751  10.1148294   5.3015385  )
        29           f   tau(  29) = (  12.1547757  14.4917429  10.7769002  )
        30           f   tau(  30) = (  14.2046421   0.0013516   2.2821996  )
        31           f   tau(  31) = (   8.2580729   3.0577772  11.9617011  )
        32           f   tau(  32) = (  10.2852236  11.4411292   3.4239184  )
        33           f   tau(  33) = (   8.5156161   8.1198445  10.9862584  )
        34           f   tau(  34) = (  10.5487069   6.3773403   2.4545473  )
        35           f   tau(  35) = (  12.4832304  10.0281200   8.2752990  )
        36           f   tau(  36) = (  10.4441983   4.4644859  16.8175427  )
        37           f   tau(  37) = (   1.5730094  14.7802407  13.1123381  )
        38           f   tau(  38) = (   3.6054430  -0.2807370   4.5918141  )
        39           f   tau(  39) = (   4.4607741   3.4987440  15.8093960  )
        40           f   tau(  40) = (   6.4975252  10.9987345   7.2733905  )
        41           f   tau(  41) = (   4.6237132   8.5513963  14.5903307  )
        42           f   tau(  42) = (   6.6580384   5.9461553   6.0481711  )
        43           f   tau(  43) = (   2.1765901  10.2527608  10.3931578  )
        44           f   tau(  44) = (   4.2024976   4.2492001   1.8534428  )
        45           s   tau(  45) = (  -1.0907891   3.6660737   4.6881747  )
        46           s   tau(  46) = (  -3.1395734  10.8386395  13.2202957  )

     number of k points=     4
                       cart. coord. in units 2pi/alat
        k(    1) = (   0.0130111   0.0172421   0.0177570), wk =   0.5000000
        k(    2) = (   0.0128566   0.0172319  -0.0115715), wk =   0.5000000
        k(    3) = (   0.0130067  -0.0172264   0.0177455), wk =   0.5000000
        k(    4) = (   0.0128522  -0.0172365  -0.0115830), wk =   0.5000000

     Dense  grid:   552095 G-vectors     FFT dimensions: ( 120,  90, 108)

     Smooth grid:   300543 G-vectors     FFT dimensions: (  96,  72,  90)

     Largest allocated arrays     est. size (Mb)     dimensions
        Kohn-Sham Wavefunctions         5.78 Mb     (   3154,  120)
        NL pseudopotentials            17.71 Mb     (   3154,  368)
        Each V/rho on FFT grid          1.48 Mb     (  97200)
        Each G-vector array             0.35 Mb     (  46008)
        G-vector shells                 0.35 Mb     (  46008)
     Largest temporary arrays     est. size (Mb)     dimensions
        Auxiliary wavefunctions        23.10 Mb     (   3154,  480)
        Each subspace H/S matrix        3.52 Mb     ( 480, 480)
        Each <psi_i|beta_j> matrix      0.67 Mb     (    368,  120)
        Arrays for rho mixing          11.87 Mb     (  97200,   8)

     Check: negative/imaginary core charge=   -0.000033    0.000000

     Initial potential from superposition of free atoms

     starting charge  239.99803, renormalised to  240.00000
     Starting wfc are  184 atomic wfcs
     Checking if some PAW data can be deallocated... 

     total cpu time spent up to now is       23.2 secs

     per-process dynamical memory:    66.7 Mb

     Self-consistent Calculation

     iteration #  1     ecut=    60.00 Ry     beta=0.70
     Davidson diagonalization with overlap
     ethr =  1.00E-02,  avg # of iterations =  4.0

     total cpu time spent up to now is       55.1 secs

     total energy              =   -2239.07933758 Ry
     Harris-Foulkes estimate   =   -2242.02296169 Ry
     estimated scf accuracy    <    1634.14339424 Ry

     iteration #  2     ecut=    60.00 Ry     beta=0.70
     Davidson diagonalization with overlap
     ethr =  1.00E-02,  avg # of iterations =  1.0

     total cpu time spent up to now is       77.9 secs

     total energy              =   -2239.47301510 Ry
     Harris-Foulkes estimate   =   -2239.60596056 Ry
     estimated scf accuracy    <     158.96940701 Ry

     iteration #  3     ecut=    60.00 Ry     beta=0.70
     Davidson diagonalization with overlap
     ethr =  1.00E-02,  avg # of iterations =  4.0

     total cpu time spent up to now is      104.3 secs

     total energy              =   -2241.85532959 Ry
     Harris-Foulkes estimate   =   -2241.93877605 Ry
     estimated scf accuracy    <       6.86658441 Ry

     iteration #  4     ecut=    60.00 Ry     beta=0.70
     Davidson diagonalization with overlap
     ethr =  2.86E-03,  avg # of iterations =  1.0

     total cpu time spent up to now is      127.1 secs

     total energy              =   -2241.87414890 Ry
     Harris-Foulkes estimate   =   -2241.97450905 Ry
     estimated scf accuracy    <       6.82318703 Ry

     iteration #  5     ecut=    60.00 Ry     beta=0.70
     Davidson diagonalization with overlap
     ethr =  2.84E-03,  avg # of iterations =  1.0

     total cpu time spent up to now is      149.9 secs

     total energy              =   -2242.09753752 Ry
     Harris-Foulkes estimate   =   -2241.95914686 Ry
     estimated scf accuracy    <       6.93717691 Ry

     iteration #  6     ecut=    60.00 Ry     beta=0.70
     Davidson diagonalization with overlap
     ethr =  2.84E-03,  avg # of iterations =  1.0

     negative rho (up, down):  0.307E-01 0.000E+00

     total cpu time spent up to now is      172.8 secs

     total energy              =   -2239.42969282 Ry
     Harris-Foulkes estimate   =   -2242.17325242 Ry
     estimated scf accuracy    <       7.46383066 Ry

     iteration #  7     ecut=    60.00 Ry     beta=0.70
     Davidson diagonalization with overlap
     ethr =  2.84E-03,  avg # of iterations =  4.5

     negative rho (up, down):  0.564E-01 0.000E+00

     total cpu time spent up to now is      202.9 secs

     total energy              =   -2241.92158297 Ry
     Harris-Foulkes estimate   =   -2241.16790249 Ry
     estimated scf accuracy    <       2.30999606 Ry

     iteration #  8     ecut=    60.00 Ry     beta=0.70
     Davidson diagonalization with overlap
     ethr =  9.62E-04,  avg # of iterations =  8.5

     negative rho (up, down):  0.132E-01 0.000E+00

     total cpu time spent up to now is      236.8 secs

     total energy              =   -2240.97189791 Ry
     Harris-Foulkes estimate   =   -2242.61985225 Ry
     estimated scf accuracy    <       8.60233674 Ry

     iteration #  9     ecut=    60.00 Ry     beta=0.70
     Davidson diagonalization with overlap
     ethr =  9.62E-04,  avg # of iterations =  1.0

     total cpu time spent up to now is      259.8 secs

     total energy              =   -2238.44069675 Ry
     Harris-Foulkes estimate   =   -2241.03678985 Ry
     estimated scf accuracy    <       5.17803008 Ry

     iteration # 10     ecut=    60.00 Ry     beta=0.70
     Davidson diagonalization with overlap
     ethr =  9.62E-04,  avg # of iterations =  5.0

     negative rho (up, down):  0.208E-03 0.000E+00

     total cpu time spent up to now is      300.8 secs

     total energy              =   -2240.03057033 Ry
     Harris-Foulkes estimate   =   -2241.62721060 Ry
     estimated scf accuracy    <       5.40861220 Ry

     iteration # 11     ecut=    60.00 Ry     beta=0.70
     Davidson diagonalization with overlap
     ethr =  9.62E-04,  avg # of iterations =  2.0

     negative rho (up, down):  0.138E-02 0.000E+00

     total cpu time spent up to now is      324.5 secs

     total energy              =   -2239.79304896 Ry
     Harris-Foulkes estimate   =   -2240.13473599 Ry
     estimated scf accuracy    <       2.57884180 Ry

     iteration # 12     ecut=    60.00 Ry     beta=0.70
     Davidson diagonalization with overlap
     ethr =  9.62E-04,  avg # of iterations =  5.0

     total cpu time spent up to now is      358.8 secs

     total energy              =   -2240.45714096 Ry
     Harris-Foulkes estimate   =   -2240.77380719 Ry
     estimated scf accuracy    <       0.57812640 Ry

     iteration # 13     ecut=    60.00 Ry     beta=0.70
     Davidson diagonalization with overlap
     ethr =  2.41E-04,  avg # of iterations =  5.0

     total cpu time spent up to now is      398.4 secs

     total energy              =   -2240.45134522 Ry
     Harris-Foulkes estimate   =   -2241.16244123 Ry
     estimated scf accuracy    <       2.82707053 Ry

     iteration # 14     ecut=    60.00 Ry     beta=0.70
     Davidson diagonalization with overlap
     ethr =  2.41E-04,  avg # of iterations =  8.2

     total cpu time spent up to now is      430.8 secs

     total energy              =   -2240.55391953 Ry
     Harris-Foulkes estimate   =   -2240.65957503 Ry
     estimated scf accuracy    <       0.24506997 Ry

     iteration # 15     ecut=    60.00 Ry     beta=0.70
     Davidson diagonalization with overlap
     ethr =  1.02E-04,  avg # of iterations =  5.0

     total cpu time spent up to now is      466.8 secs

     total energy              =   -2240.70244643 Ry
     Harris-Foulkes estimate   =   -2240.68197455 Ry
     estimated scf accuracy    <       0.18597354 Ry

     iteration # 16     ecut=    60.00 Ry     beta=0.70
     Davidson diagonalization with overlap
     ethr =  7.75E-05,  avg # of iterations =  1.0

     total cpu time spent up to now is      489.8 secs

     total energy              =   -2240.67671800 Ry
     Harris-Foulkes estimate   =   -2240.70410722 Ry
     estimated scf accuracy    <       0.22857059 Ry

     iteration # 17     ecut=    60.00 Ry     beta=0.70
     Davidson diagonalization with overlap
     ethr =  7.75E-05,  avg # of iterations =  2.2

     total cpu time spent up to now is      513.4 secs

     total energy              =   -2240.67084960 Ry
     Harris-Foulkes estimate   =   -2240.68001360 Ry
     estimated scf accuracy    <       0.19347462 Ry

     iteration # 18     ecut=    60.00 Ry     beta=0.70
     Davidson diagonalization with overlap
     ethr =  7.75E-05,  avg # of iterations =  1.0

     total cpu time spent up to now is      536.4 secs

     total energy              =   -2240.67269159 Ry
     Harris-Foulkes estimate   =   -2240.67288306 Ry
     estimated scf accuracy    <       0.16507075 Ry

     iteration # 19     ecut=    60.00 Ry     beta=0.70
     Davidson diagonalization with overlap
     ethr =  6.88E-05,  avg # of iterations =  1.0

     total cpu time spent up to now is      559.4 secs

     total energy              =   -2240.66763575 Ry
     Harris-Foulkes estimate   =   -2240.67361764 Ry
     estimated scf accuracy    <       0.16401720 Ry

     iteration # 20     ecut=    60.00 Ry     beta=0.70
     Davidson diagonalization with overlap
     ethr =  6.83E-05,  avg # of iterations =  1.0

     total cpu time spent up to now is      582.4 secs

     total energy              =   -2240.61586316 Ry
     Harris-Foulkes estimate   =   -2240.66846566 Ry
     estimated scf accuracy    <       0.14809070 Ry

     iteration # 21     ecut=    60.00 Ry     beta=0.70
     Davidson diagonalization with overlap
     ethr =  6.17E-05,  avg # of iterations =  6.0

     total cpu time spent up to now is      611.0 secs

     total energy              =   -2240.64228761 Ry
     Harris-Foulkes estimate   =   -2240.65118582 Ry
     estimated scf accuracy    <       0.03323144 Ry

     iteration # 22     ecut=    60.00 Ry     beta=0.70
     Davidson diagonalization with overlap
     ethr =  1.38E-05,  avg # of iterations =  4.2

     total cpu time spent up to now is      638.8 secs

     total energy              =   -2240.64473250 Ry
     Harris-Foulkes estimate   =   -2240.64860778 Ry
     estimated scf accuracy    <       0.01743681 Ry

     iteration # 23     ecut=    60.00 Ry     beta=0.70
     Davidson diagonalization with overlap
     ethr =  7.27E-06,  avg # of iterations =  5.5

     total cpu time spent up to now is      668.1 secs

     total energy              =   -2240.64916422 Ry
     Harris-Foulkes estimate   =   -2240.64950515 Ry
     estimated scf accuracy    <       0.00400733 Ry

     iteration # 24     ecut=    60.00 Ry     beta=0.70
     Davidson diagonalization with overlap
     ethr =  1.67E-06,  avg # of iterations =  4.2

     total cpu time spent up to now is      695.0 secs

     total energy              =   -2240.64880301 Ry
     Harris-Foulkes estimate   =   -2240.64966220 Ry
     estimated scf accuracy    <       0.00415309 Ry

     iteration # 25     ecut=    60.00 Ry     beta=0.70
     Davidson diagonalization with overlap
     ethr =  1.67E-06,  avg # of iterations =  6.0

     total cpu time spent up to now is      722.5 secs

     total energy              =   -2240.64867727 Ry
     Harris-Foulkes estimate   =   -2240.64917385 Ry
     estimated scf accuracy    <       0.00183509 Ry

     iteration # 26     ecut=    60.00 Ry     beta=0.70
     Davidson diagonalization with overlap
     ethr =  7.65E-07,  avg # of iterations =  3.5

     total cpu time spent up to now is      747.5 secs

     total energy              =   -2240.64864650 Ry
     Harris-Foulkes estimate   =   -2240.64880939 Ry
     estimated scf accuracy    <       0.00060766 Ry

     iteration # 27     ecut=    60.00 Ry     beta=0.70
     Davidson diagonalization with overlap
     ethr =  2.53E-07,  avg # of iterations =  5.0

     total cpu time spent up to now is      784.7 secs

     total energy              =   -2240.64897453 Ry
     Harris-Foulkes estimate   =   -2240.64904193 Ry
     estimated scf accuracy    <       0.00036823 Ry

     iteration # 28     ecut=    60.00 Ry     beta=0.70
     Davidson diagonalization with overlap
     ethr =  1.53E-07,  avg # of iterations =  1.0

     total cpu time spent up to now is      807.7 secs

     total energy              =   -2240.64888085 Ry
     Harris-Foulkes estimate   =   -2240.64897689 Ry
     estimated scf accuracy    <       0.00023384 Ry

     iteration # 29     ecut=    60.00 Ry     beta=0.70
     Davidson diagonalization with overlap
     ethr =  9.74E-08,  avg # of iterations =  5.0

     total cpu time spent up to now is      843.1 secs

     total energy              =   -2240.64900654 Ry
     Harris-Foulkes estimate   =   -2240.64902463 Ry
     estimated scf accuracy    <       0.00026637 Ry

     iteration # 30     ecut=    60.00 Ry     beta=0.70
     Davidson diagonalization with overlap
     ethr =  9.74E-08,  avg # of iterations =  1.0

     total cpu time spent up to now is      866.1 secs

     total energy              =   -2240.64894493 Ry
     Harris-Foulkes estimate   =   -2240.64900701 Ry
     estimated scf accuracy    <       0.00023263 Ry

     iteration # 31     ecut=    60.00 Ry     beta=0.70
     Davidson diagonalization with overlap
     ethr =  9.69E-08,  avg # of iterations =  1.0

     total cpu time spent up to now is      889.1 secs

     total energy              =   -2240.64891557 Ry
     Harris-Foulkes estimate   =   -2240.64894955 Ry
     estimated scf accuracy    <       0.00010502 Ry

     iteration # 32     ecut=    60.00 Ry     beta=0.70
     Davidson diagonalization with overlap
     ethr =  4.38E-08,  avg # of iterations =  5.0

     total cpu time spent up to now is      925.7 secs

     total energy              =   -2240.64899135 Ry
     Harris-Foulkes estimate   =   -2240.64900506 Ry
     estimated scf accuracy    <       0.00015217 Ry

     iteration # 33     ecut=    60.00 Ry     beta=0.70
     Davidson diagonalization with overlap
     ethr =  4.38E-08,  avg # of iterations =  1.0

     total cpu time spent up to now is      948.7 secs

     total energy              =   -2240.64894955 Ry
     Harris-Foulkes estimate   =   -2240.64899156 Ry
     estimated scf accuracy    <       0.00012676 Ry

     iteration # 34     ecut=    60.00 Ry     beta=0.70
     Davidson diagonalization with overlap
     ethr =  4.38E-08,  avg # of iterations =  6.2

     total cpu time spent up to now is      977.7 secs

     total energy              =   -2240.64897385 Ry
     Harris-Foulkes estimate   =   -2240.64897840 Ry
     estimated scf accuracy    <       0.00001194 Ry

     iteration # 35     ecut=    60.00 Ry     beta=0.70
     Davidson diagonalization with overlap
     ethr =  4.98E-09,  avg # of iterations =  5.2

     total cpu time spent up to now is     1012.4 secs

     total energy              =   -2240.64897989 Ry
     Harris-Foulkes estimate   =   -2240.64897941 Ry
     estimated scf accuracy    <       0.00000124 Ry

     iteration # 36     ecut=    60.00 Ry     beta=0.70
     Davidson diagonalization with overlap
     ethr =  5.17E-10,  avg # of iterations =  6.2

     total cpu time spent up to now is     1041.7 secs

     total energy              =   -2240.64898027 Ry
     Harris-Foulkes estimate   =   -2240.64898029 Ry
     estimated scf accuracy    <       0.00000562 Ry

     iteration # 37     ecut=    60.00 Ry     beta=0.70
     Davidson diagonalization with overlap
     ethr =  5.17E-10,  avg # of iterations =  2.5

     total cpu time spent up to now is     1065.6 secs

     total energy              =   -2240.64897963 Ry
     Harris-Foulkes estimate   =   -2240.64898031 Ry
     estimated scf accuracy    <       0.00000588 Ry

     iteration # 38     ecut=    60.00 Ry     beta=0.70
     Davidson diagonalization with overlap
     ethr =  5.17E-10,  avg # of iterations =  5.5

     total cpu time spent up to now is     1091.7 secs

     total energy              =   -2240.64897927 Ry
     Harris-Foulkes estimate   =   -2240.64897970 Ry
     estimated scf accuracy    <       0.00000345 Ry

     iteration # 39     ecut=    60.00 Ry     beta=0.70
     Davidson diagonalization with overlap
     ethr =  5.17E-10,  avg # of iterations =  5.8

     total cpu time spent up to now is     1118.4 secs

     total energy              =   -2240.64897907 Ry
     Harris-Foulkes estimate   =   -2240.64897936 Ry
     estimated scf accuracy    <       0.00000171 Ry

     iteration # 40     ecut=    60.00 Ry     beta=0.70
     Davidson diagonalization with overlap
     ethr =  5.17E-10,  avg # of iterations =  4.8

     total cpu time spent up to now is     1144.8 secs

     total energy              =   -2240.64897910 Ry
     Harris-Foulkes estimate   =   -2240.64897921 Ry
     estimated scf accuracy    <       0.00000037 Ry

     iteration # 41     ecut=    60.00 Ry     beta=0.70
     Davidson diagonalization with overlap
     ethr =  1.54E-10,  avg # of iterations =  4.8

     total cpu time spent up to now is     1176.7 secs

     total energy              =   -2240.64897922 Ry
     Harris-Foulkes estimate   =   -2240.64897924 Ry
     estimated scf accuracy    <       0.00000006 Ry

     iteration # 42     ecut=    60.00 Ry     beta=0.70
     Davidson diagonalization with overlap
     ethr =  2.41E-11,  avg # of iterations =  2.0

     total cpu time spent up to now is     1202.6 secs

     total energy              =   -2240.64897921 Ry
     Harris-Foulkes estimate   =   -2240.64897923 Ry
     estimated scf accuracy    <       0.00000004 Ry

     iteration # 43     ecut=    60.00 Ry     beta=0.70
     Davidson diagonalization with overlap
     ethr =  1.87E-11,  avg # of iterations =  5.0

     total cpu time spent up to now is     1240.0 secs

     total energy              =   -2240.64897923 Ry
     Harris-Foulkes estimate   =   -2240.64897926 Ry
     estimated scf accuracy    <       0.00000012 Ry

     iteration # 44     ecut=    60.00 Ry     beta=0.70
     Davidson diagonalization with overlap
     ethr =  1.87E-11,  avg # of iterations =  1.0

     total cpu time spent up to now is     1263.0 secs

     total energy              =   -2240.64897920 Ry
     Harris-Foulkes estimate   =   -2240.64897924 Ry
     estimated scf accuracy    <       0.00000007 Ry

     iteration # 45     ecut=    60.00 Ry     beta=0.70
     Davidson diagonalization with overlap
     ethr =  1.87E-11,  avg # of iterations =  5.2

     total cpu time spent up to now is     1298.7 secs

     total energy              =   -2240.64897924 Ry
     Harris-Foulkes estimate   =   -2240.64897924 Ry
     estimated scf accuracy    <       0.00000005 Ry

     iteration # 46     ecut=    60.00 Ry     beta=0.70
     Davidson diagonalization with overlap
     ethr =  1.87E-11,  avg # of iterations =  1.0

     total cpu time spent up to now is     1321.7 secs

     total energy              =   -2240.64897923 Ry
     Harris-Foulkes estimate   =   -2240.64897924 Ry
     estimated scf accuracy    <       0.00000003 Ry

     iteration # 47     ecut=    60.00 Ry     beta=0.70
     Davidson diagonalization with overlap
     ethr =  1.29E-11,  avg # of iterations =  5.0

     total cpu time spent up to now is     1349.3 secs

     End of self-consistent calculation

          k = 0.0130 0.0172 0.0178 ( 37583 PWs)   bands (ev):

   -24.3459 -24.3070 -24.2374 -24.2301 -24.0513 -24.0256 -23.9927 -23.9789
   -23.7624 -23.7511 -23.7363 -23.7235 -23.6754 -23.6640 -23.6401 -23.6212
   -15.1628 -15.1372 -14.9812 -14.9765 -12.8992 -12.8864 -12.0535 -12.0307
   -11.9464 -11.9197 -11.8995 -11.8963 -11.0637 -11.0189  -9.9307  -9.9051
    -9.0084  -8.9503  -8.8960  -8.8789  -8.7974  -8.7721  -7.9087  -7.8836
    -7.7118  -7.6475  -7.2006  -7.1471  -6.8496  -6.8233  -6.6723  -6.6623
    -6.5824  -6.5475  -6.5190  -6.4665  -6.2841  -6.2534  -5.9716  -5.9033
    -5.8564  -5.8271  -5.4010  -5.3763  -5.2923  -5.2298  -5.1654  -5.0702
    -5.0546  -4.9521  -4.4413  -4.4329  -4.3651  -4.3068  -4.1157  -3.9788
    -3.8903  -3.8416  -3.7335  -3.6188  -3.5908  -3.5211  -3.2630  -3.2296
    -3.1035  -3.0485  -2.9952  -2.9335  -2.8215  -2.7971  -2.7760  -2.7161
    -2.7108  -2.6889  -2.3244  -2.2874  -2.2520  -2.0866  -1.9485  -1.9309
    -1.8715  -1.8320  -1.7988  -1.6439  -1.3849  -1.3533  -0.9873  -0.9813
    -0.8850  -0.7426  -0.6151  -0.4555   0.4528   0.5121   0.6107   0.6268
     0.6652   0.7296   0.9080   0.9243   0.9498   0.9829   1.3157   1.3593

          k = 0.0129 0.0172-0.0116 ( 37561 PWs)   bands (ev):

   -24.3460 -24.3069 -24.2375 -24.2300 -24.0514 -24.0256 -23.9926 -23.9790
   -23.7623 -23.7512 -23.7364 -23.7233 -23.6754 -23.6640 -23.6403 -23.6211
   -15.1600 -15.1403 -14.9848 -14.9727 -12.8999 -12.8850 -12.0485 -12.0360
   -11.9394 -11.9337 -11.9001 -11.8890 -11.0677 -11.0159  -9.9254  -9.9089
    -9.0104  -8.9478  -8.9028  -8.8708  -8.7944  -8.7786  -7.9145  -7.8825
    -7.6949  -7.6607  -7.1911  -7.1584  -6.8362  -6.8333  -6.6681  -6.6610
    -6.5668  -6.5418  -6.5259  -6.4764  -6.2852  -6.2497  -5.9522  -5.9354
    -5.8526  -5.8149  -5.4720  -5.3905  -5.3174  -5.1931  -5.0918  -5.0697
    -5.0434  -4.9726  -4.4455  -4.4238  -4.3626  -4.3083  -4.0976  -3.9862
    -3.9056  -3.8500  -3.7195  -3.6237  -3.5958  -3.5163  -3.2752  -3.2311
    -3.0917  -3.0754  -2.9684  -2.9498  -2.8370  -2.8022  -2.7700  -2.7167
    -2.7095  -2.6943  -2.3165  -2.2833  -2.2493  -2.0905  -1.9478  -1.9106
    -1.8693  -1.8287  -1.7931  -1.6443  -1.4150  -1.3502  -0.9915  -0.9637
    -0.8727  -0.7395  -0.6242  -0.4596   0.4852   0.5071   0.5892   0.6238
     0.6649   0.7311   0.8971   0.9281   0.9668   0.9824   1.3062   1.3585

          k = 0.0130-0.0172 0.0177 ( 37588 PWs)   bands (ev):

   -24.3460 -24.3070 -24.2374 -24.2301 -24.0513 -24.0256 -23.9927 -23.9789
   -23.7624 -23.7511 -23.7364 -23.7234 -23.6755 -23.6640 -23.6402 -23.6211
   -15.1627 -15.1373 -14.9812 -14.9766 -12.8992 -12.8864 -12.0535 -12.0308
   -11.9464 -11.9198 -11.8996 -11.8961 -11.0636 -11.0191  -9.9309  -9.9049
    -9.0084  -8.9502  -8.8960  -8.8789  -8.7972  -8.7723  -7.9088  -7.8835
    -7.7117  -7.6477  -7.2004  -7.1473  -6.8496  -6.8233  -6.6722  -6.6624
    -6.5826  -6.5476  -6.5188  -6.4663  -6.2843  -6.2533  -5.9716  -5.9035
    -5.8565  -5.8269  -5.4013  -5.3763  -5.2926  -5.2284  -5.1653  -5.0709
    -5.0546  -4.9523  -4.4413  -4.4331  -4.3654  -4.3068  -4.1153  -3.9786
    -3.8901  -3.8419  -3.7339  -3.6186  -3.5909  -3.5209  -3.2632  -3.2294
    -3.1036  -3.0484  -2.9952  -2.9337  -2.8210  -2.7974  -2.7754  -2.7164
    -2.7104  -2.6896  -2.3245  -2.2873  -2.2521  -2.0872  -1.9486  -1.9309
    -1.8715  -1.8317  -1.7988  -1.6443  -1.3849  -1.3533  -0.9869  -0.9817
    -0.8845  -0.7419  -0.6139  -0.4566   0.4530   0.5119   0.6112   0.6263
     0.6643   0.7305   0.9079   0.9241   0.9504   0.9827   1.3153   1.3595

          k = 0.0129-0.0172-0.0116 ( 37563 PWs)   bands (ev):

   -24.3460 -24.3070 -24.2375 -24.2301 -24.0514 -24.0256 -23.9926 -23.9789
   -23.7623 -23.7512 -23.7364 -23.7235 -23.6753 -23.6641 -23.6402 -23.6211
   -15.1600 -15.1402 -14.9848 -14.9727 -12.8999 -12.8850 -12.0486 -12.0360
   -11.9395 -11.9337 -11.8999 -11.8891 -11.0679 -11.0157  -9.9253  -9.9090
    -9.0103  -8.9480  -8.9028  -8.8707  -8.7945  -8.7785  -7.9148  -7.8822
    -7.6950  -7.6606  -7.1911  -7.1584  -6.8363  -6.8333  -6.6682  -6.6609
    -6.5670  -6.5411  -6.5264  -6.4764  -6.2848  -6.2500  -5.9521  -5.9356
    -5.8527  -5.8146  -5.4715  -5.3907  -5.3177  -5.1937  -5.0912  -5.0694
    -5.0443  -4.9723  -4.4454  -4.4236  -4.3624  -4.3083  -4.0978  -3.9866
    -3.9057  -3.8498  -3.7191  -3.6241  -3.5957  -3.5163  -3.2750  -3.2312
    -3.0917  -3.0755  -2.9683  -2.9501  -2.8370  -2.8021  -2.7706  -2.7164
    -2.7098  -2.6937  -2.3165  -2.2830  -2.2497  -2.0897  -1.9479  -1.9107
    -1.8690  -1.8291  -1.7933  -1.6438  -1.4150  -1.3502  -0.9919  -0.9634
    -0.8730  -0.7402  -0.6253  -0.4586   0.4851   0.5069   0.5905   0.6229
     0.6653   0.7306   0.8971   0.9281   0.9671   0.9817   1.3068   1.3581
 TIME (initial):        0.0
* Atoms contributing density to the main cell
  Number of atoms:   15778
 
 TIME (set up the environment):        0.1
 DOCALC: T F T T
 ESAVE:       0.000000000000       0.000000000000       0.000000000000
* XDM: using PAW all-electron density reconstruction? T
 TIME (promolecular grid):       14.5
 TIME (calculation of b grid):       15.1
 TIME (calculation of volumes and moments):      100.4
 
+ Volume and moments
# All results in atomic units.
# i              V                  Vfree                 M1                  M2                  M3
  1        95.2391837724       114.0071219785         8.0377055551       166.2740194323      4040.9409447836
  2        95.2246992029       114.0071219785         8.0383293582       166.2865840368      4041.1348357694
  3        95.9911952263       114.0071219785         7.8476975024       161.0859283803      3861.6546092377
  4        95.9854785570       114.0071219785         7.8491057799       161.1146294124      3862.3230061461
  5        34.2227499760        39.0349749523         3.8336917297        51.5935019268      1015.9905688327
  6        34.2215757134        39.0349749523         3.8337454426        51.5896707740      1015.8417362379
  7        34.0446212364        39.0349749523         3.8425246701        53.5736751978      1073.4335827074
  8        34.0479520577        39.0349749523         3.8426409328        53.5726666667      1073.3615238969
  9        34.3588274323        39.0349749523         3.8324543124        53.6416784479      1068.4197656228
 10        34.3619354165        39.0349749523         3.8317731273        53.6324227786      1068.2487886623
 11        34.4970613577        39.0349749523         3.7980726726        51.0232166665      1003.4744440109
 12        34.4970893474        39.0349749523         3.7980589069        51.0193057938      1003.3783008567
 13        33.6914950745        39.0349749523         3.8762749235        54.1909992466      1081.5544932413
 14        33.6924018496        39.0349749523         3.8762551403        54.1855524373      1081.3023103992
 15        33.6867302322        39.0349749523         3.8429258508        53.7653163509      1081.5655054219
 16        33.6891010868        39.0349749523         3.8431171349        53.7638980716      1081.4135388417
 17        33.9681480667        39.0349749523         3.8279227842        53.4127495962      1071.3054546770
 18        33.9695394944        39.0349749523         3.8278347743        53.4085860837      1071.2203938879
 19        34.2816902867        39.0349749523         3.8348944609        53.5512850397      1064.8678426705
 20        34.2811367844        39.0349749523         3.8354639871        53.5600932567      1064.9651437420
 21        34.4597208904        39.0349749523         3.8018469735        51.0627471212      1003.7241232798
 22        34.4589950560        39.0349749523         3.8023639051        51.0689636709      1003.7837829289
 23        34.2554585201        39.0349749523         3.8314709615        51.5675601705      1016.3677945129
 24        34.2554801291        39.0349749523         3.8310830380        51.5608846008      1016.2380330510
 25        33.8642207878        39.0349749523         3.8770442884        54.2965543165      1085.4692893041
 26        33.8653891978        39.0349749523         3.8769604837        54.2904645572      1085.2710190612
 27        34.0277359058        39.0349749523         3.8269756437        53.7519909474      1086.4361207591
 28        34.0298684262        39.0349749523         3.8268617608        53.7493668851      1086.3722619767
 29        17.8605082381        19.2806797260         4.6307213195        28.7239084634       245.4509998042
 30        17.8586514408        19.2806797260         4.6306509387        28.7198329173       245.3812992311
 31        17.6921795363        19.2806797260         4.5885766920        28.2202589471       238.4446296988
 32        17.6918051655        19.2806797260         4.5882177994        28.2167545046       238.4117489285
 33        17.7521512155        19.2806797260         4.5741249960        28.1376926605       239.5648892554
 34        17.7512578221        19.2806797260         4.5730322589        28.1314182768       239.5386521956
 35        17.9408953137        19.2806797260         4.6248431526        28.6917465836       246.5708623737
 36        17.9414736779        19.2806797260         4.6262262867        28.7014953698       246.6183205898
 37        17.8637714259        19.2806797260         4.6472697729        28.8287311439       246.2848865804
 38        17.8625856110        19.2806797260         4.6470283127        28.8256178208       246.2411361069
 39        17.8590722918        19.2806797260         4.5935671163        28.4762173529       243.8377929817
 40        17.8604492070        19.2806797260         4.5940966266        28.4803852030       243.8793699287
 41        17.6924805522        19.2806797260         4.5940795530        28.2231211313       238.9231677817
 42        17.6932848069        19.2806797260         4.5945701787        28.2273526272       238.9683829396
 43        17.9576907179        19.2806797260         4.6289902504        28.7514163960       247.4134443943
 44        17.9580154651        19.2806797260         4.6290622912        28.7511475262       247.3948460872
 45        71.2596414506        77.4908459489         7.6201402192       123.1655843861      2092.2389271872
 46        71.2541116010        77.4908459489         7.6264500223       123.2645804440      2093.4803182617
 
+ Dispersion coefficients
# All results in atomic units.
# i   j              C6                  C8                  C10                   Rc                  Rvdw
  1   1        97.6471689145      6060.0082263616    371874.3424205390         7.8557071837         7.7554952833
  2   1        97.6435314097      6059.7762894353    371857.2222014432         7.8556899525         7.7554883133
  2   2        97.6398953284      6059.5444413114    371840.1076475006         7.8556727213         7.7554813432
  3   1        96.8540419183      5987.5080840441    365437.9943738793         7.8374624062         7.7481152708
  3   2        96.8502571744      5987.2679693785    365420.4761974693         7.8374450726         7.7481082594
  3   3        96.0916282767      5917.2805064415    359182.7525864785         7.8191465016         7.7407064874
  4   1        96.8600307365      5987.8744990112    365459.7631149467         7.8374579736         7.7481134778
  4   2        96.8562470875      5987.6344518029    365442.2489022929         7.8374406399         7.7481064663
  4   3        96.0973874504      5917.6313706387    359203.4605805649         7.8191420475         7.7407046857
  4   4        96.1031483415      5917.9823401417    359224.1748963565         7.8191375933         7.7407028840
  5   1        44.0846351805      2257.8828428339    119240.6068645050         7.2117842889         7.4950284723
  5   2        44.0832635934      2257.8097985389    119235.4784585178         7.2117627530         7.4950197611
  5   3        43.6894484536      2227.1419807034    116843.4030990214         7.1914155721         7.4867893264
  5   4        43.6924286924      2227.2921832088    116851.0349930202         7.1914103526         7.4867872151
  5   5        19.9598588761       805.8543226716     36341.9149182378         6.5339129289         7.2208295072
  6   1        44.0841307260      2257.7784564249    119230.9423653874         7.2116587852         7.4949777061
  6   2        44.0827592766      2257.7054216569    119225.8146155304         7.2116372484         7.4949689944
  6   3        43.6889318067      2227.0377981822    116833.8306616383         7.1912895362         7.4867383449
  6   4        43.6919121358      2227.1880000009    116841.4622481153         7.1912843166         7.4867362335
  6   5        19.9596562561       805.8105777281     36338.5078958789         6.5337765087         7.2207743252
  6   6        19.9594536498       805.7668340602     36335.1010784470         6.5336400852         7.2207191419
  7   1        44.0112238679      2286.1011703365    122156.5650232882         7.2584783619         7.5139162249
  7   2        44.0098735120      2286.0282369368    122151.3970597773         7.2584571895         7.5139076606
  7   3        43.6140991592      2254.9906125651    119714.0896563221         7.2382889363         7.5057496022
  7   4        43.6170937562      2255.1437258208    119721.9691456679         7.2382837834         7.5057475179
  7   5        19.9306258268       819.1555225096     37405.9949930061         6.5834778402         7.2408785138
  7   6        19.9304253142       819.1117690422     37402.5368506758         6.5833423588         7.2408237116
  7   7        19.9017169484       832.4278003784     38487.0368431743         6.6327984342         7.2608286941
  8   1        44.0141276660      2286.2068260251    122159.6131233467         7.2584039059         7.5138861074
  8   2        44.0127770508      2286.1338803568    122154.4445054891         7.2583827330         7.5138775430
  8   3        43.6170000795      2255.0958291788    119717.1059306780         7.2382141599         7.5057193552
  8   4        43.6199947005      2255.2489404875    119724.9851269691         7.2382090069         7.5057172708
  8   5        19.9319048311       819.1876310443     37406.5400228220         6.5833962153         7.2408454966
  8   6        19.9317042893       819.1438743062     37403.0817147519         6.5832607318         7.2407906935
  8   7        19.9029915690       832.4606845511     38487.6213398222         6.6327174263         7.2607959264
  8   8        19.9042662939       832.4935704718     38488.2058365553         6.6326364171         7.2607631582
  9   1        44.1700281483      2297.9529578367    122755.3054021840         7.2608000478         7.5148553468
  9   2        44.1686430499      2297.8780967368    122750.0305055488         7.2607788946         7.5148467904
  9   3        43.7755633046      2266.9095795042    120312.2382999156         7.2406070764         7.5066872899
  9   4        43.7785382456      2267.0619127863    120320.0728451511         7.2406019253         7.5066852063
  9   5        19.9962280324       823.4828757058     37567.6167846442         6.5850818467         7.2415273345
  9   6        19.9960240066       823.4388443179     37564.1360874479         6.5849462236         7.2414724749
  9   7        19.9667806391       836.7778932303     38653.5118103670         6.6344658305         7.2615031559
  9   8        19.9680634111       836.8111561917     38654.1054134344         6.6343847500         7.2614703589
  9   9        20.0327556786       841.1768680947     38822.2666434127         6.6361450164         7.2621823866
 10   1        44.1684036076      2297.8732590947    122751.5059394402         7.2608106397         7.5148596313
 10   2        44.1670178817      2297.7983652986    122746.2293281964         7.2607894867         7.5148510748
 10   3        43.7740462476      2266.8357942134    120308.7756943769         7.2406177241         7.5066915969
 10   4        43.7770203871      2266.9880863759    120316.6080963890         7.2406125729         7.5066895132
 10   5        19.9953492384       823.4488665478     37566.2454734435         6.5850941649         7.2415323172
 10   6        19.9951451568       823.4048344048     37562.7647973973         6.5849585422         7.2414774578
 10   7        19.9658930720       836.7428746667     38652.0758292239         6.6344779988         7.2615080780
 10   8        19.9671758774       836.7761400809     38652.6695949978         6.6343969186         7.2614752811
 10   9        20.0318810431       841.1423273300     38820.8551704468         6.6361571879         7.2621873100
 10  10        20.0310068061       841.1078031046     38819.4444453052         6.6361693593         7.2621922333
 11   1        44.0736137743      2255.7356565657    119047.7207094878         7.2093169806         7.4940304462
 11   2        44.0721988058      2255.6604419232    119042.4807441003         7.2092954254         7.4940217270
 11   3        43.6845179288      2225.3219087554    116669.2850158787         7.1889380421         7.4857871655
 11   4        43.6874528181      2225.4696942993    116676.7849687348         7.1889328190         7.4857850528
 11   5        19.9456330446       804.5637160568     36256.7106115495         6.5312482684         7.2197516520
 11   6        19.9454263962       804.5198412473     36253.3014171196         6.5311117882         7.2196964458
 11   7        19.9157724389       817.8298590342     37317.9341586136         6.5808301164         7.2398075096
 11   8        19.9170563167       817.8621370087     37318.4872079379         6.5807484532         7.2397744768
 11   9        19.9823475145       822.1936745557     37481.0446735680         6.5824311574         7.2404551306
 11  10        19.9814925330       822.1606752348     37479.7203482322         6.5824434841         7.2404601168
 11  11        19.9329118139       803.3347694680     36174.3694349155         6.5285825059         7.2186733511
 12   1        44.0735561646      2255.6678529500    119041.6615780002         7.2092276751         7.4939943221
 12   2        44.0721411868      2255.5926399145    119036.4217864087         7.2092061191         7.4939856027
 12   3        43.6844623634      2225.2547956793    116663.3140525854         7.1888484143         7.4857509111
 12   4        43.6873972374      2225.4025761289    116670.8135786371         7.1888431911         7.4857487983
 12   5        19.9456046077       804.5332186309     36254.5813380220         6.5311551749         7.2197139957
 12   6        19.9453979585       804.4893441450     36251.1722656550         6.5310186933         7.2196587889
 12   7        19.9157438785       817.7993798159     37315.7664228157         6.5807373403         7.2397699816
 12   8        19.9170277559       817.8316559161     37316.3193940044         6.5806556761         7.2397369485
 12   9        19.9823191203       822.1631018806     37478.8656500324         6.5823382397         7.2404175455
 12  10        19.9814641461       822.1301041093     37477.5414226921         6.5823505667         7.2404225317
 12  11        19.9328837779       803.3043079405     36172.2442646941         6.5284893874         7.2186356847
 12  12        19.9328557421       803.2738465011     36170.1191811263         6.5283962686         7.2185980181
 13   1        43.9481174671      2285.3192102854    122096.3379592495         7.2601770610         7.5146033487
 13   2        43.9468172448      2285.2488111616    122091.3074843483         7.2601559026         7.5145947901
 13   3        43.5449597956      2253.8889989527    119637.0783720111         7.2399858273         7.5064359946
 13   4        43.5479992261      2254.0446055894    119645.0891507597         7.2399806757         7.5064339108
 13   5        19.9122425022       819.5308683084     37400.6755236197         6.5847059940         7.2413753021
 13   6        19.9120467860       819.4873336066     37397.2251768365         6.5845704209         7.2413204627
 13   7        19.8840769075       832.8192786187     38483.5965038541         6.6340681801         7.2613423063
 13   8        19.8853439580       832.8519362322     38484.1678189482         6.6339871256         7.2613095198
 13   9        19.9479537305       837.1218205870     38648.0089498470         6.6357436513         7.2620200344
 13  10        19.9470413615       837.0857087374     38646.5235037458         6.6357558212         7.2620249572
 13  11        19.8957516245       818.1376858083     37309.5020201164         6.5820563416         7.2403035177
 13  12        19.8957226699       818.1072182217     37307.3325250233         6.5819634719         7.2402659519
 13  13        19.8682780425       833.2859730178     38483.7876194443         6.6353434509         7.2618581534
 14   1        43.9486436816      2285.2586440889    122087.1134626358         7.2600181103         7.5145390531
 14   2        43.9473433633      2285.1882425407    122082.0830306071         7.2599969507         7.5145304941
 14   3        43.5454922009      2253.8294333167    119627.9918171089         7.2398261403         7.5063714012
 14   4        43.5485315858      2253.9850314923    119636.0017365630         7.2398209885         7.5063693173
 14   5        19.9124638983       819.5001407880     37397.0558926312         6.5845280664         7.2413033303
 14   6        19.9122681722       819.4566056769     37393.6056651953         6.5843924880         7.2412484889
 14   7        19.8842967937       832.7887050784     38479.9383474514         6.6338918926         7.2612709980
 14   8        19.8855638690       832.8213609685     38480.5095056837         6.6338108349         7.2612382102
 14   9        19.9481762087       837.0912459503     38644.3370686790         6.6355672464         7.2619486786
 14  10        19.9472638723       837.0551373198     38642.8518684811         6.6355794169         7.2619536016
 14  11        19.8959755942       818.1070891612     37305.8925555095         6.5818783159         7.2402315063
 14  12        19.8959466401       818.0766213186     37303.7231525239         6.5817854434         7.2401939394
 14  13        19.8684947051       833.2553083839     38480.1225907155         6.6351670901         7.2617868154
 14  14        19.8687113752       833.2246431956     38476.4576357989         6.6349907216         7.2617154744
 15   1        43.7675833490      2276.6239893830    121847.1013083058         7.2639528559         7.5161306577
 15   2        43.7662671958      2276.5527524682    121842.0247311469         7.2639317251         7.5161221103
 15   3        43.3689955414      2245.4673973850    119403.3436143427         7.2437877475         7.5079738714
 15   4        43.3720008074      2245.6212901538    119411.2791555657         7.2437826027         7.5079717903
 15   5        19.8259444581       816.2928342337     37346.5309561170         6.5895336525         7.2433280899
 15   6        19.8257475547       816.2494013241     37343.0896245158         6.5893983339         7.2432733535
 15   7        19.7975846243       829.5099567576     38424.4169813274         6.6388041340         7.2632579997
 15   8        19.7988490059       829.5426113826     38424.9976237051         6.6387232271         7.2632252728
 15   9        19.8616819840       833.8157128383     38589.4780899935         6.6404762995         7.2639343906
 15  10        19.8607848773       833.7802178669     38588.0161513071         6.6404884475         7.2639393045
 15  11        19.8102538163       814.9354091134     37257.0127631494         6.5868889856         7.2422583222
 15  12        19.8102251729       814.9050796761     37254.8519239278         6.5867962919         7.2422208276
 15  13        19.7810486830       829.9405638248     38422.9892754644         6.6400769102         7.2637728376
 15  14        19.7812657402       829.9100936926     38419.3429616519         6.6399008692         7.2637016291
 15  15        19.6945579530       826.6233956991     38362.6849832278         6.6448019549         7.2656841182
 16   1        43.7702409828      2276.6922797735    121845.7604935604         7.2638225188         7.5160779363
 16   2        43.7689246981      2276.6210379535    121840.6837356447         7.2638013870         7.5160693885
 16   3        43.3716360382      2245.5347987595    119401.9845506691         7.2436567963         7.5079209016
 16   4        43.3746414342      2245.6886933475    119409.9198361091         7.2436516513         7.5079188204
 16   5        19.8271374082       816.3102655765     37345.4606250194         6.5893869942         7.2432687666
 16   6        19.8269404880       816.2668301651     37342.0192153922         6.5892516712         7.2432140285
 16   7        19.7987751011       829.5281965868     38423.3718508563         6.6386588863         7.2631992470
 16   8        19.8000395657       829.5608514434     38423.9523878388         6.6385779767         7.2631665191
 16   9        19.8628775235       833.8341598649     38588.4295346351         6.6403309638         7.2638756023
 16  10        19.8619803902       833.7986653424     38586.9677070631         6.6403431123         7.2638805164
 16  11        19.8114475891       814.9528565347     37255.9451160755         6.5867422436         7.2421989650
 16  12        19.8114189444       814.9225253342     37253.7842392488         6.5866495475         7.2421614694
 16  13        19.7822362122       829.9587740206     38421.9397163577         6.6399316081         7.2637140629
 16  14        19.7824532855       829.9283018492     38418.2932712221         6.6397555607         7.2636428518
 16  15        19.6957411520       826.6415811702     38361.6472281527         6.6446569155         7.2656254498
 16  16        19.6969244241       826.6597659305     38360.6093078972         6.6445118707         7.2655667792
 17   1        43.8800997645      2280.0236139444    121879.8356931142         7.2597780835         7.5144419622
 17   2        43.8787495173      2279.9506719339    121874.6694912472         7.2597569209         7.5144334020
 17   3        43.4846945440      2249.0268648472    119444.9973737258         7.2395945783         7.5062777344
 17   4        43.4876762278      2249.1793653831    119452.8482782591         7.2395894273         7.5062756508
 17   5        19.8704183214       817.0131279146     37325.7682104377         6.5849255545         7.2414641143
 17   6        19.8702180403       816.9694878963     37322.3183774900         6.5847901139         7.2414093286
 17   7        19.8415386366       830.2423977787     38403.8341837759         6.6342333732         7.2614091269
 17   8        19.8428099255       830.2752256200     38404.4194132986         6.6341523905         7.2613763694
 17   9        19.9064971977       834.5842619439     38570.1423839584         6.6359018040         7.2620840072
 17  10        19.9056143905       834.5494215262     38568.7133547678         6.6359139674         7.2620889273
 17  11        19.8557437734       815.6967251808     37238.1779757391         6.5822786008         7.2403934215
 17  12        19.8557153335       815.6663387643     37236.0158794902         6.5821858461         7.2403559022
 17  13        19.8238038588       830.6261938233     38400.1231403244         6.6355037705         7.2619230026
 17  14        19.8240233257       830.5957269834     38396.4756808568         6.6353275438         7.2618517190
 17  15        19.7376391106       827.3282013808     38341.1153876084         6.6402371173         7.2638376414
 17  16        19.7388261412       827.3464124623     38340.0747322158         6.6400919209         7.2637789095
 17  17        19.7815543029       828.0631032852     38320.8163896177         6.6356678282         7.2619893640
 18   1        43.8805731799      2279.9977363941    121876.8414175328         7.2597139902         7.5144160365
 18   2        43.8792227575      2279.9247868032    121871.6748523379         7.2596928271         7.5144074761
 18   3        43.4851857028      2249.0022460198    119442.0985552880         7.2395302822         7.5062517266
 18   4        43.4881672549      2249.1547362988    119449.9488068467         7.2395251311         7.5062496430
 18   5        19.8705987422       816.9976888965     37324.6184155743         6.5848603600         7.2414377431
 18   6        19.8703984441       816.9540480811     37321.1686134972         6.5847249188         7.2413829571
 18   7        19.8417164097       830.2270122818     38402.6607675067         6.6341682647         7.2613827905
 18   8        19.8429877314       830.2598398519     38403.2459902699         6.6340872814         7.2613500328
 18   9        19.9066793119       834.5689982251     38568.9692863607         6.6358365818         7.2620576248
 18  10        19.9057965820       834.5341620828     38567.5404724893         6.6358487453         7.2620625450
 18  11        19.8559295586       815.6815169291     37237.0403259227         6.5822133958         7.2403670461
 18  12        19.8559011198       815.6511303188     37234.8782769516         6.5821206411         7.2403295268
 18  13        19.8239753966       830.6105775735     38398.9368598609         6.6354385862         7.2618966356
 18  14        19.8241948756       830.5801106426     38395.2894568386         6.6352623580         7.2618253513
 18  15        19.7378125848       827.3127681246     38339.9397359061         6.6401720530         7.2638113229
 18  16        19.7389996323       827.3309782732     38338.8990607605         6.6400268552         7.2637525904
 18  17        19.7817320314       828.0477878975     38319.6470620285         6.6356027316         7.2619630324
 18  18        19.7819097818       828.0324730145     38318.4777983769         6.6355376352         7.2619367009
 19   1        44.1311507048      2293.7804547097    122425.3243307885         7.2575136465         7.5135259975
 19   2        44.1297741146      2293.7061057779    122420.0815115712         7.2574924682         7.5135174309
 19   3        43.7360342386      2262.7319247939    119984.6053506801         7.2373074507         7.5053525913
 19   4        43.7390139955      2262.8843638633    119992.4386771424         7.2373022948         7.5053505057
 19   5        19.9801679420       821.8481345479     37456.6657079544         6.5815422903         7.2400955839
 19   6        19.9799647762       821.8041770888     37453.1931728509         6.5814065902         7.2400406932
 19   7        19.9508523720       835.1384355829     38540.6982894271         6.6309479699         7.2600801813
 19   8        19.9521331485       835.1715688761     38541.2861367949         6.6308668401         7.2600473643
 19   9        20.0166043191       839.5235403465     38708.5695049508         6.6326233156         7.2607578587
 19  10        20.0157265181       839.4889076611     38707.1550835480         6.6326354981         7.2607627865
 19  11        19.9660492664       820.5503986917     37369.8177841878         6.5788901876         7.2390228083
 19  12        19.9660208315       820.5198497107     37367.6432047943         6.5787972380         7.2389852102
 19  13        19.9323159771       835.4945528177     38535.7067955031         6.6322232925         7.2605960493
 19  14        19.9325378209       835.4639720369     38532.0396154376         6.6320467615         7.2605246425
 19  15        19.8459902634       832.1901374466     38477.3121640056         6.6369623673         7.2625130051
 19  16        19.8471845635       832.2084993422     38476.2618334078         6.6368169240         7.2624541732
 19  17        19.8905946699       832.9485526879     38457.5694267977         6.6323849334         7.2606614330
 19  18        19.8907757215       832.9332538905     38456.3968257835         6.6323196977         7.2606350452
 19  19        20.0005075721       837.8740741185     38595.1993279119         6.6290998017         7.2593325973
 20   1        44.1338794780      2293.9370481166    122432.3490748656         7.2575054279         7.5135226731
 20   2        44.1325032188      2293.8627157552    122427.1071010561         7.2574842496         7.5135141064
 20   3        43.7386815620      2262.8835162744    119991.3210725569         7.2372990743         7.5053492031
 20   4        43.7416619275      2263.0359877249    119999.1560097425         7.2372939184         7.5053471175
 20   5        19.9814913098       821.9092521061     37458.7644980981         6.5815247616         7.2400884936
 20   6        19.9812881702       821.8652933023     37455.2917891529         6.5813890595         7.2400336020
 20   7        19.9521799739       835.2006821263     38542.8904215115         6.6309312574         7.2600734211
 20   8        19.9534607801       835.2338157296     38543.4781640884         6.6308501265         7.2600406037
 20   9        20.0179265645       839.5856925093     38710.7537798809         6.6326066814         7.2607511301
 20  10        20.0170484845       839.5510479740     38709.3388554057         6.6326188640         7.2607560580
 20  11        19.9673574658       820.6108406227     37371.8840048438         6.5788726170         7.2390157011
 20  12        19.9673290255       820.5802894808     37369.7092583464         6.5787796657         7.2389781023
 20  13        19.9336580744       835.5574761642     38537.9300571518         6.6322066349         7.2605893113
 20  14        19.9338799068       835.5268922975     38534.2625503566         6.6320301015         7.2605179035
 20  15        19.8473196057       832.2525183092     38479.5198388912         6.6369457377         7.2625062784
 20  16        19.8485139690       832.2708811285     38478.4693632622         6.6368002925         7.2624474458
 20  17        19.8919169860       833.0105799149     38459.7548926647         6.6323682402         7.2606546806
 20  18        19.8920979972       832.9952779683     38458.5820947933         6.6323030033         7.2606282923
 20  19        20.0018311286       837.9362114114     38597.3803872665         6.6290831134         7.2593258469
 20  20        20.0031549082       837.9983589383     38599.5618320405         6.6290664253         7.2593190965
 21   1        44.0695617299      2255.3339915773    119008.1927959671         7.2088835449         7.4938551214
 21   2        44.0681521351      2255.2590584336    119002.9684127808         7.2088619863         7.4938464010
 21   3        43.6797829817      2224.8881483925    116628.3955831105         7.1885022803         7.4856108999
 21   4        43.6827229516      2225.0361799694    116635.9072545083         7.1884970565         7.4856087869
 21   5        19.9449064095       804.4464797358     36244.2334437194         6.5307430836         7.2195473048
 21   6        19.9447002688       804.4026276112     36240.8256904871         6.5306065847         7.2194920910
 21   7        19.9151246191       817.7154625424     37305.4615572645         6.5803311746         7.2396056876
 21   8        19.9164077566       817.7477051278     37306.0127226609         6.5802495002         7.2395726503
 21   9        19.9815750372       822.0738031222     37468.2860282598         6.5819320704         7.2402532500
 21  10        19.9807173072       822.0406944070     37466.9570041947         6.5819443991         7.2402582369
 21  11        19.9320064731       803.2104139246     36161.5832153172         6.5280769628         7.2184688589
 21  12        19.9319783925       803.1799520550     36159.4583153979         6.5279838331         7.2184311880
 21  13        19.8953023826       818.0315056760     37297.4027628527         6.5815573223         7.2401016643
 21  14        19.8955260168       818.0008951443     37293.7929610866         6.5813792707         7.2400296425
 21  15        19.8097191448       814.8260848328     37244.7962368209         6.5863908942         7.2420568442
 21  16        19.8109126736       814.8435178093     37243.7278053477         6.5862441307         7.2419974783
 21  17        19.8550818461       815.5820029998     37225.7090620198         6.5817798664         7.2401916834
 21  18        19.8552669661       815.5667673657     37224.5702974671         6.5817146543         7.2401653052
 21  19        19.9653073062       820.4318907774     37357.1365888906         6.5783906397         7.2388207412
 21  20        19.9666171633       820.4923948126     37359.2051305279         6.5783730634         7.2388136316
 21  21        19.9311226534       803.0869335165     36148.8377636410         6.5275713372         7.2182643334
 22   1        44.0719347218      2255.4428046383    119012.0887948349         7.2088454120         7.4938396966
 22   2        44.0705254477      2255.3678881581    119006.8652830378         7.2088238531         7.4938309761
 22   3        43.6820806344      2224.9926653219    116632.0461548887         7.1884639145         7.4855953809
 22   4        43.6850211672      2225.1407246394    116639.5591452431         7.1884586906         7.4855932678
 22   5        19.9460641079       804.4874581474     36245.3159601261         6.5306966600         7.2195285265
 22   6        19.9458579932       804.4436050624     36241.9081074029         6.5305601591         7.2194733118
 22   7        19.9162864676       817.7574610650     37306.6104689353         6.5802854746         7.2395872020
 22   8        19.9175696272       817.7897029947     37307.1615122675         6.5802037990         7.2395541642
 22   9        19.9827314980       822.1156557188     37469.4227672695         6.5818863778         7.2402347673
 22  10        19.9818735081       822.0825366779     37468.0933149290         6.5818987066         7.2402397543
 22  11        19.9331498718       803.2507782204     36162.6373936707         6.5280304990         7.2184500643
 22  12        19.9331217862       803.2203144716     36160.5123826867         6.5279373679         7.2184123928
 22  13        19.8964780447       818.0741438307     37298.5796858461         6.5815116295         7.2400831816
 22  14        19.8967016672       818.0435303984     37294.9696336620         6.5813335752         7.2400111587
 22  15        19.8108831422       814.8682863198     37245.9618792446         6.5863452858         7.2420383956
 22  16        19.8120767251       814.8857193198     37244.8933101884         6.5861985200         7.2419790288
 22  17        19.8562389771       815.6238443680     37226.8539638983         6.5817341885         7.2401732067
 22  18        19.8564240580       815.6086057455     37225.7150421981         6.5816689756         7.2401468281
 22  19        19.9664650860       820.4737458953     37358.2724846810         6.5783448952         7.2388022376
 22  20        19.9677751481       820.5342583668     37360.3413165567         6.5783273185         7.2387951278
 22  21        19.9322676260       803.1273564410     36149.8942494866         6.5275248650         7.2182455354
 22  22        19.9334127873       803.1677863102     36150.9509633115         6.5274783921         7.2182267371
 23   1        44.0947163241      2258.4672733889    119294.0484070539         7.2121813913         7.4951891003
 23   2        44.0933405481      2258.3940117888    119288.9075220216         7.2121598584         7.4951803902
 23   3        43.6999702295      2227.7458405714    116897.4519766998         7.1918154982         7.4869510965
 23   4        43.7029471976      2227.8958805305    116905.0768020443         7.1918102795         7.4869489855
 23   5        19.9636043416       806.0363750804     36359.9604657421         6.5344243600         7.2210363811
 23   6        19.9634013134       805.9926066713     36356.5519134533         6.5342879676         7.2209812104
 23   7        19.9343082905       819.3376617064     37424.1575532226         6.5839792717         7.2410813429
 23   8        19.9355880480       819.3697993936     37424.7043170958         6.5838976629         7.2410483321
 23   9        20.0000132516       823.6696484307     37586.0212736795         6.5855829163         7.2417300171
 23  10        19.9991363494       823.6357162359     37584.6530806306         6.5855952321         7.2417349989
 23  11        19.9495083951       804.7508514765     36274.9711331874         6.5317602433         7.2199587459
 23  12        19.9494799867       804.7203494506     36272.8414070545         6.5316671690         7.2199210973
 23  13        19.9157750836       819.7070192994     37418.5547611155         6.5852071526         7.2415780207
 23  14        19.9159967636       819.6762967373     37414.9349576555         6.5850292598         7.2415060631
 23  15        19.8295263850       816.4709396135     37364.4745908467         6.5900338953         7.2435304381
 23  16        19.8307197074       816.4883824022     37363.4049440261         6.5898872656         7.2434711264
 23  17        19.8741015451       817.1952669282     37343.9052476946         6.5854267019         7.2416668284
 23  18        19.8742824871       817.1798453787     37342.7561919617         6.5853615205         7.2416404625
 23  19        19.9839280074       822.0336633688     37474.9958484740         6.5820440604         7.2402985499
 23  20        19.9852503617       822.0947425393     37477.0934325393         6.5820265348         7.2402914608
 23  21        19.9487657280       804.6329502976     36262.4619928901         6.5312551596         7.2197544395
 23  22        19.9499224486       804.6738899500     36263.5431686023         6.5312087452         7.2197356649
 23  23        19.9673622678       806.2189421861     36378.0330164712         6.5349356914         7.2212432147
 24   1        44.0926162392      2258.3345994608    119286.2941279868         7.2121501072         7.4951764458
 24   2        44.0912402715      2258.2613289576    119281.1528594903         7.2121285740         7.4951677357
 24   3        43.6979241955      2227.6166515838    116889.9358531089         7.1917841164         7.4869384026
 24   4        43.7009007595      2227.7666693254    116897.5594758622         7.1917788976         7.4869362916
 24   5        19.9625991823       805.9844228311     36357.4214674033         6.5343927992         7.2210236147
 24   6        19.9623961398       805.9406557493     36354.0130870037         6.5342564064         7.2209684439
 24   7        19.9333007884       819.2848995031     37421.5434480590         6.5839477295         7.2410685841
 24   8        19.9345805155       819.3170362473     37422.0902240667         6.5838661205         7.2410355732
 24   9        19.9990084451       823.6168776400     37583.4061780786         6.5855513140         7.2417172340
 24  10        19.9981317235       823.5829532756     37582.0383400540         6.5855636298         7.2417222157
 24  11        19.9485127447       804.6993269267     36272.4536751744         6.5317286783         7.2199459779
 24  12        19.9484843399       804.6688265303     36270.3240916431         6.5316356041         7.2199083293
 24  13        19.9147587944       819.6538487722     37415.9221396291         6.5851755702         7.2415652456
 24  14        19.9149804793       819.6231283198     37412.3025856968         6.5849976767         7.2414932877
 24  15        19.8285187888       816.4181600491     37361.8556141909         6.5900023730         7.2435176874
 24  16        19.8297120610       816.4356017003     37360.7860316626         6.5898557427         7.2434583754
 24  17        19.8730978748       817.1426797269     37341.2985103005         6.5853951651         7.2416540718
 24  18        19.8732788400       817.1272601843     37340.1495911601         6.5853299839         7.2416277060
 24  19        19.9829225410       821.9809235484     37472.3851975206         6.5820124529         7.2402857647
 24  20        19.9842447450       822.0419954454     37474.4824638047         6.5819949266         7.2402786753
 24  21        19.9477690598       804.5813895082     36259.9433615399         6.5312235913         7.2197416702
 24  22        19.9489256428       804.6223232385     36261.0243033039         6.5311771765         7.2197228954
 24  23        19.9663576998       806.1670101184     36375.4943640261         6.5349041371         7.2212304509
 24  24        19.9653532342       806.1150833273     36372.9559814203         6.5348725829         7.2212176873
 25   1        44.0720964959      2293.3826056268    122618.5263833746         7.2628109117         7.5156687413
 25   2        44.0707802198      2293.3113155543    122613.4418070588         7.2627897734         7.5156601908
 25   3        43.6694980169      2261.9367741079    120154.6478752464         7.2426309111         7.5075059310
 25   4        43.6725333997      2262.0922776598    120162.6586357516         7.2426257633         7.5075038488
 25   5        19.9657947231       822.4672121932     37566.9649831323         6.5875873862         7.2425408252
 25   6        19.9655972951       822.4235043834     37563.5000453820         6.5874518844         7.2424860147
 25   7        19.9373691693       835.7826025350     38653.3401135010         6.6369282719         7.2624992135
 25   8        19.9386412712       835.8154636699     38653.9190120591         6.6368472622         7.2624664450
 25   9        20.0017074421       840.1112161421     38819.0821790794         6.6386063613         7.2631780006
 25  10        20.0007992049       840.0752502362     38817.6026089115         6.6386185219         7.2631829196
 25  11        19.9496839028       821.0871441382     37476.2400825035         6.5849390631         7.2414695785
 25  12        19.9496549784       821.0565973703     37474.0628053137         6.5848462272         7.2414320264
 25  13        19.9210586700       836.2302672107     38652.6457242899         6.6382052257         7.2630157413
 25  14        19.9212766919       836.1995619810     38648.9704776107         6.6380289761         7.2629444483
 25  15        19.8338047185       832.8814612583     38591.8178830286         6.6429334808         7.2649283205
 25  16        19.8349959169       832.8997847775     38590.7683150093         6.6427882731         7.2648695839
 25  17        19.8769726431       833.5830196420     38569.5377502819         6.6383629833         7.2630795542
 25  18        19.8771462029       833.5674333173     38568.3503281208         6.6382978160         7.2630531940
 25  19        19.9859567344       838.4760173522     38706.2211319746         6.6350877097         7.2617547061
 25  20        19.9872984005       838.5389897704     38708.4475028797         6.6350710934         7.2617479848
 25  21        19.9491825682       820.9785659777     37464.0049833381         6.5844404361         7.2412678839
 25  22        19.9503575664       821.0212044892     37465.1813523908         6.5843947862         7.2412494185
 25  23        19.9693744587       822.6455179931     37584.9769421774         6.5880879776         7.2427433144
 25  24        19.9683579338       822.5922699574     37582.3378076215         6.5880564026         7.2427305423
 25  25        19.9741001462       839.1893923524     38822.4140237556         6.6410654430         7.2641726992
 26   1        44.0724599621      2293.3176914808    122610.7077344591         7.2626801675         7.5156158552
 26   2        44.0711435337      2293.2463959641    122605.6229963675         7.2626590282         7.5156073044
 26   3        43.6698775367      2261.8733698576    120146.9801354324         7.2424996316         7.5074528285
 26   4        43.6729128003      2262.0288614516    120154.9899658193         7.2424944837         7.5074507462
 26   5        19.9659294582       822.4347863258     37563.9869977054         6.5874458964         7.2424835926
 26   6        19.9657320154       822.3910780391     37560.5221693749         6.5873103913         7.2424287808
 26   7        19.9375016094       835.7502324254     38650.3185487339         6.6367877039         7.2624423537
 26   8        19.9387737386       835.7830921513     38650.8973512695         6.6367066922         7.2624095845
 26   9        20.0018436236       840.0788916016     38816.0517746286         6.6384656480         7.2631210821
 26  10        20.0009354555       840.0429303387     38814.5724822746         6.6384778090         7.2631260012
 26  11        19.9498233751       821.0549390402     37473.2757384586         6.5847975141         7.2414123219
 26  12        19.9497944518       821.0243921647     37471.0985572856         6.5847046768         7.2413747692
 26  13        19.9211856436       836.1977061904     38649.6124244011         6.6380645635         7.2629588434
 26  14        19.9214036759       836.1670007259     38645.9372772753         6.6378883087         7.2628875483
 26  15        19.8339335010       832.8491441634     38588.8020472106         6.6427930746         7.2648715262
 26  16        19.8351247128       832.8674657767     38587.7523998981         6.6426478624         7.2648127878
 26  17        19.8771051165       833.5507680236     38566.5252234394         6.6382224560         7.2630227109
 26  18        19.8772786954       833.5351820127     38565.3378805978         6.6381572880         7.2629963505
 26  19        19.9860920001       838.4436777172     38703.1944447191         6.6349469205         7.2616977568
 26  20        19.9874336291       838.5066460730     38705.4204967939         6.6349303020         7.2616910346
 26  21        19.9493214562       820.9463371695     37461.0398562761         6.5842988684         7.2412106198
 26  22        19.9504964186       820.9889719350     37462.2159813095         6.5842532165         7.2411921536
 26  23        19.9695096479       822.6131042300     37581.9991985077         6.5879465157         7.2426860931
 26  24        19.9684931446       822.5598589429     37579.3603047006         6.5879149404         7.2426733209
 26  25        19.9742288352       839.1568071706     38819.3731493401         6.6409248515         7.2641158299
 26  26        19.9743575408       839.1242221948     38816.3323995806         6.6407842568         7.2640589593
 27   1        43.9155931373      2287.9346754945    122683.1690174211         7.2702454515         7.5186760126
 27   2        43.9142367696      2287.8612258342    122677.9621856613         7.2702243683         7.5186674845
 27   3        43.5205570238      2256.8939127859    120239.2168003284         7.2501085769         7.5105306468
 27   4        43.5235359920      2257.0466830017    120247.1071455136         7.2501034414         7.5105285695
 27   5        19.8854280586       820.3773997346     37617.4768887533         6.5965176132         7.2461531020
 27   6        19.8852271458       820.3336792403     37614.0117479719         6.5963824867         7.2460984433
 27   7        19.8564518933       833.6095354897     38699.5492167831         6.6457284856         7.2660588999
 27   8        19.8577248087       833.6425919310     38700.1480352877         6.6456476975         7.2660262211
 27   9        19.9215769343       837.9685926673     38867.5046399597         6.6474058530         7.2667373950
 27  10        19.9206961299       837.9337161842     38866.0684094509         6.6474179774         7.2667422993
 27  11        19.8709144912       819.0650662509     37529.7668473819         6.5938765586         7.2450847955
 27  12        19.8708860736       819.0346545022     37527.5952651604         6.5937839639         7.2450473409
 27  13        19.8385136107       833.9831734641     38695.5164821774         6.6470045515         7.2665750686
 27  14        19.8387335581       833.9527277082     38691.8596548243         6.6468287987         7.2665039766
 27  15        19.7523688651       830.6743515839     38635.5496485127         6.6517170715         7.2684812829
[...]
  Evdw   =  -1.549890386710E-01 Hartree,  -3.099780773420E-01 Ry
  Evdw6 =  -7.352739123337E-02 Hartree,  -1.470547824667E-01 Ry
  Evdw8 =  -4.603068508903E-02 Hartree,  -9.206137017805E-02 Ry
  Evdw10 =  -3.543096234862E-02 Hartree,  -7.086192469723E-02 Ry
  Evdw9  =   0.000000000000E+00 Hartree,   0.000000000000E+00 Ry
  Fvdw (01) =  -4.053290714366E-05  -2.386978671465E-04   1.240940511215E-04  Hartree/bohr
            =  -8.106581428731E-05  -4.773957342930E-04   2.481881022430E-04  Ry/bohr
  Fvdw (02) =  -4.022707449362E-05   2.359065559565E-04   1.309456362200E-04  Hartree/bohr
            =  -8.045414898724E-05   4.718131119129E-04   2.618912724401E-04  Ry/bohr
  Fvdw (03) =   1.584620716582E-04   5.621145407181E-04  -5.191911183485E-04  Hartree/bohr
            =   3.169241433164E-04   1.124229081436E-03  -1.038382236697E-03  Ry/bohr
  Fvdw (04) =   1.621374205537E-04  -5.619843670488E-04  -5.177721908176E-04  Hartree/bohr
            =   3.242748411075E-04  -1.123968734098E-03  -1.035544381635E-03  Ry/bohr
  Fvdw (05) =   2.683128394780E-04   2.245032078618E-04   1.895214207248E-04  Hartree/bohr
            =   5.366256789560E-04   4.490064157236E-04   3.790428414495E-04  Ry/bohr
  Fvdw (06) =   2.691359102104E-04  -2.247136763571E-04   1.929201280233E-04  Hartree/bohr
            =   5.382718204207E-04  -4.494273527142E-04   3.858402560466E-04  Ry/bohr
  Fvdw (07) =  -2.951361486089E-04   5.594734775945E-05   7.305805485092E-05  Hartree/bohr
            =  -5.902722972178E-04   1.118946955189E-04   1.461161097018E-04  Ry/bohr
  Fvdw (08) =  -2.951908395291E-04  -5.615728721041E-05   7.231597728380E-05  Hartree/bohr
            =  -5.903816790582E-04  -1.123145744208E-04   1.446319545676E-04  Ry/bohr
  Fvdw (09) =  -3.439781921690E-04  -9.641961893044E-05  -1.778689942482E-04  Hartree/bohr
            =  -6.879563843380E-04  -1.928392378609E-04  -3.557379884963E-04  Ry/bohr
  Fvdw (10) =  -3.427148189445E-04   9.669585854419E-05  -1.775458610485E-04  Hartree/bohr
            =  -6.854296378891E-04   1.933917170884E-04  -3.550917220970E-04  Ry/bohr
  Fvdw (11) =  -2.054217034354E-04   1.345703240092E-04  -1.677264410527E-05  Hartree/bohr
            =  -4.108434068708E-04   2.691406480183E-04  -3.354528821054E-05  Ry/bohr
  Fvdw (12) =  -2.043722680763E-04  -1.347470600993E-04  -1.599366434880E-05  Hartree/bohr
            =  -4.087445361525E-04  -2.694941201987E-04  -3.198732869759E-05  Ry/bohr
  Fvdw (13) =   5.149694725893E-04   1.702631491775E-04   1.651409234466E-04  Hartree/bohr
            =   1.029938945179E-03   3.405262983551E-04   3.302818468931E-04  Ry/bohr
  Fvdw (14) =   5.155684360913E-04  -1.702718993269E-04   1.691211748698E-04  Hartree/bohr
            =   1.031136872183E-03  -3.405437986539E-04   3.382423497396E-04  Ry/bohr
  Fvdw (15) =   2.117651884354E-04   2.836171076346E-04   2.165659606095E-04  Hartree/bohr
            =   4.235303768708E-04   5.672342152692E-04   4.331319212189E-04  Ry/bohr
  Fvdw (16) =   2.108871130264E-04  -2.833077400613E-04   2.176791223489E-04  Hartree/bohr
            =   4.217742260528E-04  -5.666154801225E-04   4.353582446978E-04  Ry/bohr
  Fvdw (17) =   2.152806253555E-04   1.633749138355E-04   2.064639060753E-04  Hartree/bohr
            =   4.305612507109E-04   3.267498276711E-04   4.129278121507E-04  Ry/bohr
  Fvdw (18) =   2.146855819707E-04  -1.626562317656E-04   2.079252404351E-04  Hartree/bohr
            =   4.293711639413E-04  -3.253124635312E-04   4.158504808703E-04  Ry/bohr
  Fvdw (19) =   3.665418104618E-04  -7.523925529623E-06  -3.649224845609E-06  Hartree/bohr
            =   7.330836209237E-04  -1.504785105925E-05  -7.298449691218E-06  Ry/bohr
  Fvdw (20) =   3.668155271379E-04   8.331567804984E-06  -8.030429443599E-07  Hartree/bohr
            =   7.336310542758E-04   1.666313560997E-05  -1.606085888720E-06  Ry/bohr
  Fvdw (21) =   2.145529373853E-04   1.560756843794E-04   9.413147884594E-05  Hartree/bohr
            =   4.291058747707E-04   3.121513687588E-04   1.882629576919E-04  Ry/bohr
  Fvdw (22) =   2.152935648886E-04  -1.557471971354E-04   9.631921791029E-05  Hartree/bohr
            =   4.305871297772E-04  -3.114943942707E-04   1.926384358206E-04  Ry/bohr
  Fvdw (23) =  -3.006720511232E-04   2.350828590289E-04   5.182267373388E-05  Hartree/bohr
            =  -6.013441022464E-04   4.701657180579E-04   1.036453474678E-04  Ry/bohr
  Fvdw (24) =  -3.008687929982E-04  -2.350412895199E-04   5.315258679101E-05  Hartree/bohr
            =  -6.017375859964E-04  -4.700825790397E-04   1.063051735820E-04  Ry/bohr
  Fvdw (25) =  -4.975996323903E-04   2.014764866163E-04  -9.494622099304E-05  Hartree/bohr
            =  -9.951992647805E-04   4.029529732325E-04  -1.898924419861E-04  Ry/bohr
  Fvdw (26) =  -4.988995718386E-04  -2.010608681147E-04  -9.383860559762E-05  Hartree/bohr
            =  -9.977991436772E-04  -4.021217362295E-04  -1.876772111952E-04  Ry/bohr
  Fvdw (27) =  -2.634834714507E-04   2.891053254522E-04   1.358420341398E-05  Hartree/bohr
            =  -5.269669429014E-04   5.782106509044E-04   2.716840682796E-05  Ry/bohr
  Fvdw (28) =  -2.639473149324E-04  -2.890947741870E-04   1.338340579121E-05  Hartree/bohr
            =  -5.278946298649E-04  -5.781895483740E-04   2.676681158242E-05  Ry/bohr
  Fvdw (29) =   1.969345745834E-04  -5.200531151107E-05   9.374577082732E-05  Hartree/bohr
            =   3.938691491668E-04  -1.040106230221E-04   1.874915416546E-04  Ry/bohr
  Fvdw (30) =   1.964394075975E-04   5.127299173352E-05   9.663668748547E-05  Hartree/bohr
            =   3.928788151950E-04   1.025459834670E-04   1.932733749709E-04  Ry/bohr
  Fvdw (31) =  -3.299768529465E-05   2.287927007392E-04   7.226024222153E-05  Hartree/bohr
            =  -6.599537058930E-05   4.575854014784E-04   1.445204844431E-04  Ry/bohr
  Fvdw (32) =  -3.275684131473E-05  -2.285674570310E-04   7.266949686853E-05  Hartree/bohr
            =  -6.551368262946E-05  -4.571349140620E-04   1.453389937371E-04  Ry/bohr
  Fvdw (33) =   3.203546675735E-06  -1.015210129205E-04   7.528599208114E-05  Hartree/bohr
            =   6.407093351470E-06  -2.030420258409E-04   1.505719841623E-04  Ry/bohr
  Fvdw (34) =   3.182158259017E-06   1.023501825757E-04   7.588082384522E-05  Hartree/bohr
            =   6.364316518035E-06   2.047003651513E-04   1.517616476904E-04  Ry/bohr
  Fvdw (35) =   1.242620002975E-04  -7.865394993664E-05  -4.416067864953E-05  Hartree/bohr
            =   2.485240005950E-04  -1.573078998733E-04  -8.832135729906E-05  Ry/bohr
  Fvdw (36) =   1.245023748669E-04   7.909502440293E-05  -4.192736227515E-05  Hartree/bohr
            =   2.490047497338E-04   1.581900488059E-04  -8.385472455030E-05  Ry/bohr
  Fvdw (37) =  -2.232467986977E-04  -2.505408656413E-05  -9.733668642000E-06  Hartree/bohr
            =  -4.464935973954E-04  -5.010817312826E-05  -1.946733728400E-05  Ry/bohr
  Fvdw (38) =  -2.232398764069E-04   2.499422263105E-05  -9.203527964696E-06  Hartree/bohr
            =  -4.464797528139E-04   4.998844526210E-05  -1.840705592939E-05  Ry/bohr
  Fvdw (39) =  -5.697831121163E-06   2.235139431131E-04  -7.420759087427E-06  Hartree/bohr
            =  -1.139566224233E-05   4.470278862262E-04  -1.484151817485E-05  Ry/bohr
  Fvdw (40) =  -5.002411429601E-06  -2.227801791639E-04  -7.668573243288E-06  Hartree/bohr
            =  -1.000482285920E-05  -4.455603583278E-04  -1.533714648658E-05  Ry/bohr
  Fvdw (41) =  -5.403041129040E-05  -1.299581540555E-04   1.149079838751E-04  Hartree/bohr
            =  -1.080608225808E-04  -2.599163081109E-04   2.298159677501E-04  Ry/bohr
  Fvdw (42) =  -5.441531948038E-05   1.298450827780E-04   1.146524497534E-04  Hartree/bohr
            =  -1.088306389608E-04   2.596901655559E-04   2.293048995068E-04  Ry/bohr
  Fvdw (43) =  -1.456050341042E-04  -8.369822694575E-05  -1.069240807273E-04  Hartree/bohr
            =  -2.912100682084E-04  -1.673964538915E-04  -2.138481614547E-04  Ry/bohr
  Fvdw (44) =  -1.445739965990E-04   8.349658000128E-05  -1.060075425167E-04  Hartree/bohr
            =  -2.891479931980E-04   1.669931600026E-04  -2.120150850333E-04  Ry/bohr
  Fvdw (45) =   1.291209764612E-04   4.496423872629E-04  -5.252471874944E-04  Hartree/bohr
            =   2.582419529223E-04   8.992847745259E-04  -1.050494374989E-03  Ry/bohr
  Fvdw (46) =   1.325574548887E-04  -4.504058634549E-04  -5.275096615556E-04  Hartree/bohr
            =   2.651149097775E-04  -9.008117269098E-04  -1.055019323111E-03  Ry/bohr
  sigma_vdw (Hy/bohr**3) =  -3.372034439349E-05   8.778410453762E-10   8.023507222769E-07  
                             8.778410453762E-10  -3.020203469583E-05  -3.268076002170E-09  
                             8.023507222769E-07  -3.268076002170E-09  -3.570977169224E-05  
  sigma_vdw (Ry/bohr**3) =  -6.744068878699E-05   1.755682090752E-09   1.604701444554E-06  
                             1.755682090752E-09  -6.040406939166E-05  -6.536152004339E-09  
                             1.604701444554E-06  -6.536152004339E-09  -7.141954338449E-05  
  sigma_vdw (GPa) =  -9.920866167061E-01   2.582697087996E-05   2.360596926848E-02  
                      2.582697087996E-05  -8.885743890803E-01  -9.615009936721E-05  
                      2.360596926848E-02  -9.615009936721E-05  -1.050617578756E+00  
 
 TIME (final):      202.3

!    total energy              =   -2240.95892520 Ry
     Harris-Foulkes estimate   =   -2240.95892521 Ry
     estimated scf accuracy    <          5.5E-09 Ry

     total all-electron energy =    -24721.900818 Ry

     The total energy is the sum of the following terms:

     one-electron contribution =    -918.75776394 Ry
     hartree contribution      =     567.73953712 Ry
     xc contribution           =    -321.16337649 Ry
     ewald contribution        =    -514.71242682 Ry
     Dispersion XDM Correction =      -0.30997808 Ry
     Uncorrected (XDM) energy  =   -2240.64894713 Ry
     one-center paw contrib.   =   -1053.75491699 Ry

     convergence has been achieved in  45 iterations

     Forces acting on atoms (Ry/au):

     atom    1 type  4   force =    -0.00029722   -0.00019422   -0.00021755
     atom    2 type  4   force =    -0.00033359    0.00032278   -0.00000977
     atom    3 type  4   force =     0.00007202   -0.00016443    0.00017254
     atom    4 type  4   force =     0.00009486    0.00004542    0.00043104
     atom    5 type  1   force =     0.00014508    0.00022606    0.00019061
     atom    6 type  1   force =     0.00019743    0.00007836    0.00005881
     atom    7 type  1   force =     0.00003250    0.00021236   -0.00032361
     atom    8 type  1   force =     0.00016662    0.00019748    0.00007341
     atom    9 type  1   force =    -0.00014773   -0.00015803    0.00000065
     atom   10 type  1   force =    -0.00023490   -0.00004779   -0.00040273
     atom   11 type  1   force =    -0.00034120   -0.00003766    0.00014713
     atom   12 type  1   force =    -0.00020379    0.00019504    0.00021981
     atom   13 type  1   force =     0.00019555   -0.00043921    0.00024862
     atom   14 type  1   force =    -0.00005227   -0.00001138    0.00010814
     atom   15 type  1   force =    -0.00028334    0.00043120   -0.00001357
     atom   16 type  1   force =     0.00045194    0.00055864    0.00007343
     atom   17 type  1   force =     0.00039708   -0.00034897   -0.00030323
     atom   18 type  1   force =    -0.00019694   -0.00052700   -0.00012998
     atom   19 type  1   force =    -0.00002122    0.00023391    0.00013962
     atom   20 type  1   force =     0.00071916   -0.00009520   -0.00036864
     atom   21 type  1   force =     0.00031192   -0.00017442    0.00027029
     atom   22 type  1   force =    -0.00004582   -0.00025740    0.00027658
     atom   23 type  1   force =    -0.00031777   -0.00008520   -0.00010306
     atom   24 type  1   force =    -0.00054452   -0.00012587   -0.00045325
     atom   25 type  1   force =    -0.00028086    0.00010466   -0.00015935
     atom   26 type  1   force =    -0.00000406   -0.00004918    0.00022657
     atom   27 type  1   force =     0.00001614    0.00010283    0.00006666
     atom   28 type  1   force =    -0.00039378   -0.00045454   -0.00048870
     atom   29 type  3   force =     0.00027719    0.00014906    0.00070166
     atom   30 type  3   force =     0.00005290    0.00003907    0.00018763
     atom   31 type  3   force =     0.00009666    0.00018964    0.00016839
     atom   32 type  3   force =     0.00051855   -0.00040072    0.00040694
     atom   33 type  3   force =    -0.00007191   -0.00001270   -0.00043071
     atom   34 type  3   force =     0.00015844    0.00038115   -0.00063662
     atom   35 type  3   force =     0.00025176    0.00026881    0.00014385
     atom   36 type  3   force =     0.00008242   -0.00017998    0.00015811
     atom   37 type  3   force =    -0.00012286    0.00032260    0.00010551
     atom   38 type  3   force =     0.00003923   -0.00023983   -0.00002259
     atom   39 type  3   force =    -0.00008907    0.00043549   -0.00016888
     atom   40 type  3   force =    -0.00003677   -0.00050894   -0.00015714
     atom   41 type  3   force =     0.00012926    0.00016586   -0.00044559
     atom   42 type  3   force =     0.00005171   -0.00019825   -0.00038642
     atom   43 type  3   force =    -0.00054944    0.00007978    0.00047215
     atom   44 type  3   force =    -0.00018147   -0.00002434    0.00047227
     atom   45 type  2   force =     0.00019603    0.00002298   -0.00034824
     atom   46 type  2   force =     0.00009607   -0.00002791    0.00004918

     Total force =     0.003201     Total SCF correction =     0.000168

     Total XDM Dispersion Force =     0.005216

     XDM Dispersion forces acting on atoms:
     atom    1 type  4   force =    -0.00008107   -0.00047740    0.00024819
     atom    2 type  4   force =    -0.00008045    0.00047181    0.00026189
     atom    3 type  4   force =     0.00031692    0.00112423   -0.00103838
     atom    4 type  4   force =     0.00032427   -0.00112397   -0.00103554
     atom    5 type  1   force =     0.00053663    0.00044901    0.00037904
     atom    6 type  1   force =     0.00053827   -0.00044943    0.00038584
     atom    7 type  1   force =    -0.00059027    0.00011189    0.00014612
     atom    8 type  1   force =    -0.00059038   -0.00011231    0.00014463
     atom    9 type  1   force =    -0.00068796   -0.00019284   -0.00035574
     atom   10 type  1   force =    -0.00068543    0.00019339   -0.00035509
     atom   11 type  1   force =    -0.00041084    0.00026914   -0.00003355
     atom   12 type  1   force =    -0.00040874   -0.00026949   -0.00003199
     atom   13 type  1   force =     0.00102994    0.00034053    0.00033028
     atom   14 type  1   force =     0.00103114   -0.00034054    0.00033824
     atom   15 type  1   force =     0.00042353    0.00056723    0.00043313
     atom   16 type  1   force =     0.00042177   -0.00056662    0.00043536
     atom   17 type  1   force =     0.00043056    0.00032675    0.00041293
     atom   18 type  1   force =     0.00042937   -0.00032531    0.00041585
     atom   19 type  1   force =     0.00073308   -0.00001505   -0.00000730
     atom   20 type  1   force =     0.00073363    0.00001666   -0.00000161
     atom   21 type  1   force =     0.00042911    0.00031215    0.00018826
     atom   22 type  1   force =     0.00043059   -0.00031149    0.00019264
     atom   23 type  1   force =    -0.00060134    0.00047017    0.00010365
     atom   24 type  1   force =    -0.00060174   -0.00047008    0.00010631
     atom   25 type  1   force =    -0.00099520    0.00040295   -0.00018989
     atom   26 type  1   force =    -0.00099780   -0.00040212   -0.00018768
     atom   27 type  1   force =    -0.00052697    0.00057821    0.00002717
     atom   28 type  1   force =    -0.00052789   -0.00057819    0.00002677
     atom   29 type  3   force =     0.00039387   -0.00010401    0.00018749
     atom   30 type  3   force =     0.00039288    0.00010255    0.00019327
     atom   31 type  3   force =    -0.00006600    0.00045759    0.00014452
     atom   32 type  3   force =    -0.00006551   -0.00045713    0.00014534
     atom   33 type  3   force =     0.00000641   -0.00020304    0.00015057
     atom   34 type  3   force =     0.00000636    0.00020470    0.00015176
     atom   35 type  3   force =     0.00024852   -0.00015731   -0.00008832
     atom   36 type  3   force =     0.00024900    0.00015819   -0.00008385
     atom   37 type  3   force =    -0.00044649   -0.00005011   -0.00001947
     atom   38 type  3   force =    -0.00044648    0.00004999   -0.00001841
     atom   39 type  3   force =    -0.00001140    0.00044703   -0.00001484
     atom   40 type  3   force =    -0.00001000   -0.00044556   -0.00001534
     atom   41 type  3   force =    -0.00010806   -0.00025992    0.00022982
     atom   42 type  3   force =    -0.00010883    0.00025969    0.00022930
     atom   43 type  3   force =    -0.00029121   -0.00016740   -0.00021385
     atom   44 type  3   force =    -0.00028915    0.00016699   -0.00021202
     atom   45 type  2   force =     0.00025824    0.00089928   -0.00105049
     atom   46 type  2   force =     0.00026511   -0.00090081   -0.00105502


     entering subroutine stress ...

          total   stress  (Ry/bohr**3)                   (kbar)     P=   -0.08
   0.00000100  -0.00000028   0.00000102          0.15     -0.04      0.15
  -0.00000028   0.00000016   0.00000044         -0.04      0.02      0.06
   0.00000102   0.00000044  -0.00000273          0.15      0.06     -0.40


     Writing output data file epxars_2.save
 
     init_run     :     41.50s CPU     43.09s WALL (       2 calls)
     electrons    :   3066.00s CPU   3131.75s WALL (       3 calls)
     update_pot   :     14.80s CPU     14.81s WALL (       1 calls)
     forces       :     50.46s CPU     50.95s WALL (       3 calls)
     stress       :    127.02s CPU    127.89s WALL (       3 calls)

     Called by init_run:
     wfcinit      :     16.20s CPU     17.01s WALL (       2 calls)
     potinit      :      9.89s CPU     10.41s WALL (       2 calls)

     Called by electrons:
     c_bands      :   1710.76s CPU   1756.44s WALL (     103 calls)
     sum_band     :    887.16s CPU    902.22s WALL (     103 calls)
     v_of_rho     :     42.55s CPU     42.74s WALL (     105 calls)
     newd         :    167.36s CPU    169.34s WALL (     105 calls)
     mix_rho      :     26.13s CPU     26.36s WALL (     103 calls)

     Called by c_bands:
     init_us_2    :     11.24s CPU     11.26s WALL (     856 calls)
     cegterg      :   1685.83s CPU   1721.15s WALL (     412 calls)

     Called by *egterg:
     h_psi        :   1088.88s CPU   1102.73s WALL (    1849 calls)
     s_psi        :    132.23s CPU    132.29s WALL (    1849 calls)
     g_psi        :      6.92s CPU      6.94s WALL (    1429 calls)
     cdiaghg      :    138.60s CPU    139.09s WALL (    1833 calls)

     Called by h_psi:
     add_vuspsi   :    133.85s CPU    133.92s WALL (    1849 calls)

     General routines
     calbec       :    198.95s CPU    203.07s WALL (    2285 calls)
     fft          :     32.08s CPU     34.98s WALL (    3117 calls)
     ffts         :      1.74s CPU      1.76s WALL (     416 calls)
     fftw         :   1245.89s CPU   1266.49s WALL (  454020 calls)
     interpolate  :      6.73s CPU      6.76s WALL (     416 calls)
     davcio       :      0.02s CPU     13.45s WALL (    1268 calls)
 
     Parallel routines
     fft_scatter  :    276.49s CPU    298.31s WALL (  457553 calls)
 
     PAW routines
     PAW_pot      :     26.93s CPU     26.94s WALL (     105 calls)
     PAW_ddot     :     16.71s CPU     16.70s WALL (    3739 calls)
 
     PWSCF        : 55m 2.90s CPU    56m12.06s WALL

 
   This run was terminated on:  21: 2:21  19Oct2012            

=------------------------------------------------------------------------------=
   JOB DONE.
=------------------------------------------------------------------------------=
