
     Program PWSCF v.4.3.2      starts on 18Oct2012 at 17:11: 8 

     This program is part of the open-source Quantum ESPRESSO suite
     for quantum simulation of materials; please cite
         "P. Giannozzi et al., J. Phys.:Condens. Matter 21 395502 (2009);
          URL http://www.quantum-espresso.org", 
     in publications or presentations arising from this work. More details at
     http://www.quantum-espresso.org/wiki/index.php/Citing_Quantum-ESPRESSO

     Parallel version (MPI), running on    12 processors
     R & G space division:  proc/pool =   12

     Current dimensions of program PWSCF are:
     Max number of different atomic species (ntypx) = 10
     Max number of k-points (npk) =  40000
     Max angular momentum in pseudopotentials (lmaxx) =  3
     Waiting for input...
     Reading input from stdin
               file c.UPF: wavefunction(s)  2P renormalized
               file f.UPF: wavefunction(s)  2S 2P renormalized
               file o.UPF: wavefunction(s)  2P renormalized

     Subspace diagonalization in iterative solution of the eigenvalue problem:
     a serial algorithm will be used

 
     Parallelization info
     --------------------
     sticks:   dense  smooth     PW     G-vecs:    dense   smooth      PW
     Min         697     464    121                40765    22173    2974
     Max         698     465    122                40767    22195    2975
     Sum        8373    5569   1455               489195   266187   35689
 

     Title: 
     epxars_2                                                                   


     bravais-lattice index     =            0
     lattice parameter (alat)  =       1.0000  a.u.
     unit-cell volume          =    4240.8826 (a.u.)^3
     number of atoms/cell      =           46
     number of atomic types    =            4
     number of electrons       =       240.00
     number of Kohn-Sham states=          120
     kinetic-energy cutoff     =      60.0000  Ry
     charge density cutoff     =     360.0000  Ry
     convergence threshold     =      1.0E-08
     mixing beta               =       0.7000
     number of iterations used =            8  plain     mixing
     Exchange-correlation      =  NOX  PW   PW86 PBC ( 0 417 4 0)
     EXX-fraction              =        0.00
     nstep                     =           50


     celldm(1)=   1.000000  celldm(2)=   0.000000  celldm(3)=   0.000000
     celldm(4)=   0.000000  celldm(5)=   0.000000  celldm(6)=   0.000000

     crystal axes: (cart. coord. in units of alat)
               a(1) = (  20.598242   0.000000   0.531072 )  
               a(2) = (   0.000000  14.184563   0.000000 )  
               a(3) = (  -3.529984   0.000000  14.423757 )  

     reciprocal axes: (cart. coord. in units 2 pi/alat)
               b(1) = (  0.048243  0.000000  0.011807 )  
               b(2) = (  0.000000  0.070499  0.000000 )  
               b(3) = ( -0.001776  0.000000  0.068895 )  


     PseudoPot. # 1 for  C read from file:
     ./c.UPF
     MD5 check sum: 59d3a4af416b94ce846c69cefa103580
     Pseudo is Projector augmented-wave + core cor, Zval =  4.0
     Generated using "atomic" code by A. Dal Corso  (Quantum ESPRESSO distribution)
     Shape of augmentation charge: BESSEL
     Using radial grid of 1073 points,  4 beta functions with: 
                l(1) =   0
                l(2) =   0
                l(3) =   1
                l(4) =   1
     Q(r) pseudized with 0 coefficients 


     PseudoPot. # 2 for  F read from file:
     ./f.UPF
     MD5 check sum: 8cc698429acbef515959d6d1ea0e1135
     Pseudo is Projector augmented-wave + core cor, Zval =  7.0
     Generated using "atomic" code by A. Dal Corso  (Quantum ESPRESSO distribution)
     Shape of augmentation charge: PSQ
     Using radial grid of 1105 points,  4 beta functions with: 
                l(1) =   0
                l(2) =   0
                l(3) =   1
                l(4) =   1
     Q(r) pseudized with 0 coefficients 


     PseudoPot. # 3 for  O read from file:
     ./o.UPF
     MD5 check sum: 7b405463629fa2aaa019ec68516902cf
     Pseudo is Projector augmented-wave + core cor, Zval =  6.0
     Generated using "atomic" code by A. Dal Corso  (Quantum ESPRESSO distribution)
     Shape of augmentation charge: BESSEL
     Using radial grid of 1095 points,  4 beta functions with: 
                l(1) =   0
                l(2) =   0
                l(3) =   1
                l(4) =   1
     Q(r) pseudized with 0 coefficients 


     PseudoPot. # 4 for As read from file:
     ./as.UPF
     MD5 check sum: c4211a47c95e243bf5c6b176bad74a68
     Pseudo is Projector augmented-wave + core cor, Zval =  5.0
     Generated using "atomic" code by A. Dal Corso  (Quantum ESPRESSO distribution)
     Shape of augmentation charge: PSQ
     Using radial grid of 1209 points,  4 beta functions with: 
                l(1) =   0
                l(2) =   0
                l(3) =   1
                l(4) =   1
     Q(r) pseudized with 0 coefficients 


     atomic species   valence    mass     pseudopotential
        c              4.00    12.01070      C( 1.00)
        f              7.00    18.99840      F( 1.00)
        o              6.00    15.99940      O( 1.00)
        as             5.00    74.92160     As( 1.00)

      2 Sym.Ops. (no inversion)


   Cartesian axes

     site n.     atom                  positions (alat units)
         1           as  tau(   1) = (  -1.7747339  13.7523894   7.1380535  )
         2           as  tau(   2) = (  -3.5397261   0.4321739  14.3499322  )
         3           as  tau(   3) = (  19.3082264   5.0923168   5.6402476  )
         4           as  tau(   4) = (  17.5432341   9.0922465  12.8521263  )
         5           c   tau(   5) = (  15.7827188   1.8215308   8.1965880  )
         6           c   tau(   6) = (  17.5477110  12.3630325   0.9847092  )
         7           c   tau(   7) = (   3.8839534   5.3734195  11.3260018  )
         8           c   tau(   8) = (   5.6489456   8.8111438   4.1141231  )
         9           c   tau(   9) = (   2.2960904   6.0819492   9.3504423  )
        10           c   tau(  10) = (   4.0610826   8.1026141   2.1385636  )
        11           c   tau(  11) = (   0.7420556   4.3457445   8.1920044  )
        12           c   tau(  12) = (   2.5070478   9.8388189   0.9801257  )
        13           c   tau(  13) = (  13.4430784   1.0659892   9.1044364  )
        14           c   tau(  14) = (  15.2080706  13.1185740   1.8925577  )
        15           c   tau(  15) = (  11.5059036   2.8239100   9.4833987  )
        16           c   tau(  16) = (  13.2708959  11.3606533   2.2715200  )
        17           c   tau(  17) = (  11.9014133   5.3660314   8.9312612  )
        18           c   tau(  18) = (  13.6664055   8.8185318   1.7193825  )
        19           c   tau(  19) = (  14.2023312   6.0833726   7.8708469  )
        20           c   tau(  20) = (  15.9673234   8.1011907   0.6589682  )
        21           c   tau(  21) = (  16.0987978   4.3433362   7.4809976  )
        22           c   tau(  22) = (  14.3338056   9.8412271  14.6928764  )
        23           c   tau(  23) = (   0.6741571   1.8355677   9.0088536  )
        24           c   tau(  24) = (   2.4391493  12.3489956   1.7969749  )
        25           c   tau(  25) = (   2.3216406   1.1012244  10.9112111  )
        26           c   tau(  26) = (   4.0866328  13.0833389   3.6993324  )
        27           c   tau(  27) = (   3.8985690   2.8587347  12.1041381  )
        28           c   tau(  28) = (   5.6635612  11.3258286   4.8922593  )
        29           f   tau(  29) = (  12.8977470  12.8038650   9.6416826  )
        30           f   tau(  30) = (  14.6627392   1.3806983   2.4298039  )
        31           f   tau(  31) = (   9.2583152   2.0711230  10.4170884  )
        32           f   tau(  32) = (  11.0233075  12.1134403   3.2052097  )
        33           f   tau(  33) = (  10.0934778   7.0847926   9.4314104  )
        34           f   tau(  34) = (  11.8584701   7.0997707   2.2195317  )
        35           f   tau(  35) = (  14.5485595   8.5676847   7.2504540  )
        36           f   tau(  36) = (  12.7835672   5.6168786  14.4623327  )
        37           f   tau(  37) = (   2.5252604  12.8483328  11.6878575  )
        38           f   tau(  38) = (   4.2902527   1.3362305   4.4759787  )
        39           f   tau(  39) = (   5.4092569   2.1289371  14.0186204  )
        40           f   tau(  40) = (   7.1742491  12.0556262   6.8067417  )
        41           f   tau(  41) = (   5.3686098   7.0924451  12.4732921  )
        42           f   tau(  42) = (   7.1336021   7.0921182   5.2614134  )
        43           f   tau(  43) = (   2.2925475   8.5567919   8.6015138  )
        44           f   tau(  44) = (   4.0575397   5.6277714   1.3896351  )
        45           o   tau(  45) = (  -1.0698298   1.7112964   4.1985186  )
        46           o   tau(  46) = (  -2.8348220  12.4732669  11.4103973  )

     number of k points=     2
                       cart. coord. in units 2pi/alat
        k(    1) = (   0.0116168   0.0176248   0.0201755), wk =   1.0000000
        k(    2) = (   0.0125049   0.0176248  -0.0142721), wk =   1.0000000

     Dense  grid:   489195 G-vectors     FFT dimensions: ( 125,  90,  90)

     Smooth grid:   266187 G-vectors     FFT dimensions: ( 108,  72,  75)

     Largest allocated arrays     est. size (Mb)     dimensions
        Kohn-Sham Wavefunctions         5.09 Mb     (   2782,  120)
        NL pseudopotentials            15.62 Mb     (   2782,  368)
        Each V/rho on FFT grid          1.37 Mb     (  90000)
        Each G-vector array             0.31 Mb     (  40767)
        G-vector shells                 0.31 Mb     (  40767)
     Largest temporary arrays     est. size (Mb)     dimensions
        Auxiliary wavefunctions        20.38 Mb     (   2782,  480)
        Each subspace H/S matrix        3.52 Mb     ( 480, 480)
        Each <psi_i|beta_j> matrix      0.67 Mb     (    368,  120)
        Arrays for rho mixing          10.99 Mb     (  90000,   8)

     Check: negative/imaginary core charge=   -0.000036    0.000000

     Initial potential from superposition of free atoms

     starting charge  239.99809, renormalised to  240.00000
     Starting wfc are  184 atomic wfcs
     Checking if some PAW data can be deallocated... 

     total cpu time spent up to now is       16.8 secs

     per-process dynamical memory:    81.6 Mb

     Self-consistent Calculation

     iteration #  1     ecut=    60.00 Ry     beta=0.70
     Davidson diagonalization with overlap
     ethr =  1.00E-02,  avg # of iterations =  4.0

     total cpu time spent up to now is       32.8 secs

     total energy              =   -2188.72586126 Ry
     Harris-Foulkes estimate   =   -2192.31915363 Ry
     estimated scf accuracy    <    1654.71106858 Ry

     iteration #  2     ecut=    60.00 Ry     beta=0.70
     Davidson diagonalization with overlap
     ethr =  1.00E-02,  avg # of iterations =  4.0

     total cpu time spent up to now is       45.5 secs

     total energy              =   -2188.74038983 Ry
     Harris-Foulkes estimate   =   -2190.59842827 Ry
     estimated scf accuracy    <     171.66953414 Ry

     iteration #  3     ecut=    60.00 Ry     beta=0.70
     Davidson diagonalization with overlap
     ethr =  1.00E-02,  avg # of iterations =  4.0

     total cpu time spent up to now is       59.0 secs

     total energy              =   -2188.93901886 Ry
     Harris-Foulkes estimate   =   -2193.54848124 Ry
     estimated scf accuracy    <      23.59702068 Ry

     iteration #  4     ecut=    60.00 Ry     beta=0.70
     Davidson diagonalization with overlap
     ethr =  9.83E-03,  avg # of iterations =  3.0

     total cpu time spent up to now is       71.5 secs

     total energy              =   -2190.08736783 Ry
     Harris-Foulkes estimate   =   -2190.47691766 Ry
     estimated scf accuracy    <       0.92619129 Ry

     iteration #  5     ecut=    60.00 Ry     beta=0.70
     Davidson diagonalization with overlap
     ethr =  3.86E-04,  avg # of iterations =  5.0

     total cpu time spent up to now is       89.0 secs

     total energy              =   -2190.51286871 Ry
     Harris-Foulkes estimate   =   -2191.02162866 Ry
     estimated scf accuracy    <       2.55122739 Ry

     iteration #  6     ecut=    60.00 Ry     beta=0.70
     Davidson diagonalization with overlap
     ethr =  3.86E-04,  avg # of iterations =  5.5

     total cpu time spent up to now is      103.4 secs

     total energy              =   -2190.71191119 Ry
     Harris-Foulkes estimate   =   -2190.72975954 Ry
     estimated scf accuracy    <       0.06510895 Ry

     iteration #  7     ecut=    60.00 Ry     beta=0.70
     Davidson diagonalization with overlap
     ethr =  2.71E-05,  avg # of iterations =  5.0

     total cpu time spent up to now is      122.5 secs

     total energy              =   -2190.73091718 Ry
     Harris-Foulkes estimate   =   -2190.74106232 Ry
     estimated scf accuracy    <       0.04431721 Ry

     iteration #  8     ecut=    60.00 Ry     beta=0.70
     Davidson diagonalization with overlap
     ethr =  1.85E-05,  avg # of iterations =  3.0

     total cpu time spent up to now is      135.6 secs

     total energy              =   -2190.73027000 Ry
     Harris-Foulkes estimate   =   -2190.73389751 Ry
     estimated scf accuracy    <       0.01167916 Ry

     iteration #  9     ecut=    60.00 Ry     beta=0.70
     Davidson diagonalization with overlap
     ethr =  4.87E-06,  avg # of iterations =  5.0

     total cpu time spent up to now is      154.5 secs

     total energy              =   -2190.73512855 Ry
     Harris-Foulkes estimate   =   -2190.73702561 Ry
     estimated scf accuracy    <       0.01067194 Ry

     iteration # 10     ecut=    60.00 Ry     beta=0.70
     Davidson diagonalization with overlap
     ethr =  4.45E-06,  avg # of iterations =  1.0

     total cpu time spent up to now is      166.9 secs

     total energy              =   -2190.73210289 Ry
     Harris-Foulkes estimate   =   -2190.73520494 Ry
     estimated scf accuracy    <       0.00732887 Ry

     iteration # 11     ecut=    60.00 Ry     beta=0.70
     Davidson diagonalization with overlap
     ethr =  3.05E-06,  avg # of iterations =  5.0

     total cpu time spent up to now is      184.7 secs

     total energy              =   -2190.73544507 Ry
     Harris-Foulkes estimate   =   -2190.73765133 Ry
     estimated scf accuracy    <       0.01475306 Ry

     iteration # 12     ecut=    60.00 Ry     beta=0.70
     Davidson diagonalization with overlap
     ethr =  3.05E-06,  avg # of iterations =  1.0

     total cpu time spent up to now is      196.6 secs

     total energy              =   -2190.73351045 Ry
     Harris-Foulkes estimate   =   -2190.73549280 Ry
     estimated scf accuracy    <       0.01093637 Ry

     iteration # 13     ecut=    60.00 Ry     beta=0.70
     Davidson diagonalization with overlap
     ethr =  3.05E-06,  avg # of iterations =  6.0

     total cpu time spent up to now is      210.7 secs

     total energy              =   -2190.73473538 Ry
     Harris-Foulkes estimate   =   -2190.73490103 Ry
     estimated scf accuracy    <       0.00067059 Ry

     iteration # 14     ecut=    60.00 Ry     beta=0.70
     Davidson diagonalization with overlap
     ethr =  2.79E-07,  avg # of iterations =  5.0

     total cpu time spent up to now is      230.3 secs

     total energy              =   -2190.73520902 Ry
     Harris-Foulkes estimate   =   -2190.73525994 Ry
     estimated scf accuracy    <       0.00038804 Ry

     iteration # 15     ecut=    60.00 Ry     beta=0.70
     Davidson diagonalization with overlap
     ethr =  1.62E-07,  avg # of iterations =  1.0

     total cpu time spent up to now is      242.1 secs

     total energy              =   -2190.73510774 Ry
     Harris-Foulkes estimate   =   -2190.73521135 Ry
     estimated scf accuracy    <       0.00028726 Ry

     iteration # 16     ecut=    60.00 Ry     beta=0.70
     Davidson diagonalization with overlap
     ethr =  1.20E-07,  avg # of iterations =  5.0

     total cpu time spent up to now is      256.7 secs

     total energy              =   -2190.73518685 Ry
     Harris-Foulkes estimate   =   -2190.73520966 Ry
     estimated scf accuracy    <       0.00009698 Ry

     iteration # 17     ecut=    60.00 Ry     beta=0.70
     Davidson diagonalization with overlap
     ethr =  4.04E-08,  avg # of iterations =  1.0

     total cpu time spent up to now is      268.5 secs

     total energy              =   -2190.73516063 Ry
     Harris-Foulkes estimate   =   -2190.73518905 Ry
     estimated scf accuracy    <       0.00005644 Ry

     iteration # 18     ecut=    60.00 Ry     beta=0.70
     Davidson diagonalization with overlap
     ethr =  2.35E-08,  avg # of iterations =  5.0

     total cpu time spent up to now is      287.1 secs

     total energy              =   -2190.73520437 Ry
     Harris-Foulkes estimate   =   -2190.73523219 Ry
     estimated scf accuracy    <       0.00021332 Ry

     iteration # 19     ecut=    60.00 Ry     beta=0.70
     Davidson diagonalization with overlap
     ethr =  2.35E-08,  avg # of iterations =  1.0

     total cpu time spent up to now is      298.8 secs

     total energy              =   -2190.73516441 Ry
     Harris-Foulkes estimate   =   -2190.73520485 Ry
     estimated scf accuracy    <       0.00016356 Ry

     iteration # 20     ecut=    60.00 Ry     beta=0.70
     Davidson diagonalization with overlap
     ethr =  2.35E-08,  avg # of iterations =  6.0

     total cpu time spent up to now is      314.8 secs

     total energy              =   -2190.73519845 Ry
     Harris-Foulkes estimate   =   -2190.73519746 Ry
     estimated scf accuracy    <       0.00000613 Ry

     iteration # 21     ecut=    60.00 Ry     beta=0.70
     Davidson diagonalization with overlap
     ethr =  2.55E-09,  avg # of iterations =  4.5

     total cpu time spent up to now is      328.6 secs

     total energy              =   -2190.73519352 Ry
     Harris-Foulkes estimate   =   -2190.73519937 Ry
     estimated scf accuracy    <       0.00000998 Ry

     iteration # 22     ecut=    60.00 Ry     beta=0.70
     Davidson diagonalization with overlap
     ethr =  2.55E-09,  avg # of iterations =  5.0

     total cpu time spent up to now is      347.5 secs

     total energy              =   -2190.73519787 Ry
     Harris-Foulkes estimate   =   -2190.73520032 Ry
     estimated scf accuracy    <       0.00002060 Ry

     iteration # 23     ecut=    60.00 Ry     beta=0.70
     Davidson diagonalization with overlap
     ethr =  2.55E-09,  avg # of iterations =  1.0

     total cpu time spent up to now is      359.3 secs

     total energy              =   -2190.73519463 Ry
     Harris-Foulkes estimate   =   -2190.73519792 Ry
     estimated scf accuracy    <       0.00001579 Ry

     iteration # 24     ecut=    60.00 Ry     beta=0.70
     Davidson diagonalization with overlap
     ethr =  2.55E-09,  avg # of iterations =  5.5

     total cpu time spent up to now is      374.1 secs

     total energy              =   -2190.73519688 Ry
     Harris-Foulkes estimate   =   -2190.73519684 Ry
     estimated scf accuracy    <       0.00000036 Ry

     iteration # 25     ecut=    60.00 Ry     beta=0.70
     Davidson diagonalization with overlap
     ethr =  1.52E-10,  avg # of iterations =  5.0

     total cpu time spent up to now is      392.8 secs

     total energy              =   -2190.73519682 Ry
     Harris-Foulkes estimate   =   -2190.73519708 Ry
     estimated scf accuracy    <       0.00000093 Ry

     iteration # 26     ecut=    60.00 Ry     beta=0.70
     Davidson diagonalization with overlap
     ethr =  1.52E-10,  avg # of iterations =  8.5

     total cpu time spent up to now is      408.4 secs

     total energy              =   -2190.73519686 Ry
     Harris-Foulkes estimate   =   -2190.73519688 Ry
     estimated scf accuracy    <       0.00000019 Ry

     iteration # 27     ecut=    60.00 Ry     beta=0.70
     Davidson diagonalization with overlap
     ethr =  7.92E-11,  avg # of iterations =  5.0

     total cpu time spent up to now is      423.8 secs

     total energy              =   -2190.73519692 Ry
     Harris-Foulkes estimate   =   -2190.73519693 Ry
     estimated scf accuracy    <       0.00000005 Ry

     iteration # 28     ecut=    60.00 Ry     beta=0.70
     Davidson diagonalization with overlap
     ethr =  2.01E-11,  avg # of iterations =  3.0

     total cpu time spent up to now is      436.4 secs

     total energy              =   -2190.73519691 Ry
     Harris-Foulkes estimate   =   -2190.73519692 Ry
     estimated scf accuracy    <       0.00000003 Ry

     iteration # 29     ecut=    60.00 Ry     beta=0.70
     Davidson diagonalization with overlap
     ethr =  1.07E-11,  avg # of iterations =  5.0

     total cpu time spent up to now is      453.3 secs

     total energy              =   -2190.73519692 Ry
     Harris-Foulkes estimate   =   -2190.73519693 Ry
     estimated scf accuracy    <       0.00000002 Ry

     iteration # 30     ecut=    60.00 Ry     beta=0.70
     Davidson diagonalization with overlap
     ethr =  7.14E-12,  avg # of iterations =  1.0

     total cpu time spent up to now is      464.9 secs

     End of self-consistent calculation

          k = 0.0116 0.0176 0.0202 ( 33309 PWs)   bands (ev):

   -23.7117 -23.6705 -23.6229 -23.6138 -23.4441 -23.4280 -23.3845 -23.3806
   -23.2120 -23.1969 -23.1820 -23.1604 -23.0468 -23.0450 -23.0039 -23.0006
   -16.4027 -16.2871 -14.4537 -14.4080 -14.3827 -14.3641 -11.8333 -11.7192
   -11.4420 -11.4062 -11.3546 -11.3377 -11.3046 -11.2695  -9.3864  -9.3504
    -8.7962  -8.6547  -8.2814  -8.2700  -8.2248  -8.1892  -7.5268  -7.4132
    -7.3770  -7.2266  -6.5910  -6.5597  -6.3046  -6.2821  -6.0804  -6.0515
    -6.0044  -5.9514  -5.9325  -5.8831  -5.7736  -5.7332  -5.3641  -5.3312
    -5.2876  -5.2361  -4.8595  -4.8406  -4.6787  -4.6066  -4.5708  -4.5123
    -4.4570  -4.3517  -3.9347  -3.8762  -3.7799  -3.7381  -3.4516  -3.4202
    -3.3089  -3.2588  -3.1176  -3.0610  -3.0041  -2.9687  -2.7883  -2.6973
    -2.6673  -2.6165  -2.4374  -2.4095  -2.3541  -2.3120  -2.2430  -2.2103
    -2.1870  -2.1389  -2.0383  -1.8402  -1.7947  -1.7358  -1.5424  -1.3382
    -1.3320  -1.2854  -1.2582  -1.2395  -0.9475  -0.9014  -0.7372  -0.4743
    -0.4175  -0.3203  -0.0195   0.0978   0.4922   0.8158   0.8925   1.0211
     1.2493   1.3308   1.3981   1.5172   1.5601   1.5929   1.6943   1.7041

          k = 0.0125 0.0176-0.0143 ( 33284 PWs)   bands (ev):

   -23.7117 -23.6705 -23.6228 -23.6139 -23.4441 -23.4279 -23.3845 -23.3806
   -23.2116 -23.1973 -23.1823 -23.1600 -23.0469 -23.0450 -23.0040 -23.0006
   -16.4027 -16.2871 -14.4528 -14.4089 -14.3839 -14.3629 -11.8319 -11.7203
   -11.4434 -11.4053 -11.3585 -11.3328 -11.3048 -11.2704  -9.3862  -9.3503
    -8.7882  -8.6622  -8.2834  -8.2695  -8.2227  -8.1899  -7.5300  -7.4150
    -7.3723  -7.2326  -6.5955  -6.5554  -6.3104  -6.2685  -6.0837  -6.0513
    -5.9917  -5.9571  -5.9148  -5.8745  -5.7755  -5.7444  -5.3559  -5.3471
    -5.2615  -5.2467  -4.9285  -4.8645  -4.6840  -4.5975  -4.5349  -4.4742
    -4.4529  -4.3628  -3.9287  -3.8780  -3.7788  -3.7373  -3.4535  -3.4199
    -3.3152  -3.2699  -3.1134  -3.0771  -3.0105  -2.9715  -2.7775  -2.6926
    -2.6573  -2.6244  -2.4256  -2.4109  -2.3383  -2.3245  -2.2422  -2.2147
    -2.1722  -2.1457  -2.0410  -1.8460  -1.7862  -1.7413  -1.5549  -1.3425
    -1.3103  -1.2930  -1.2522  -1.2359  -0.9473  -0.9011  -0.7358  -0.4663
    -0.4184  -0.3287  -0.0212   0.0930   0.4930   0.8164   0.8942   1.0216
     1.2489   1.3282   1.3914   1.5184   1.5634   1.5988   1.6924   1.6997
 TIME (initial):        0.0
* Atoms contributing density to the main cell
  Number of atoms:   15778
 
 TIME (set up the environment):        0.2
 DOCALC: T F T T
 ESAVE:       0.000000000000       0.000000000000       0.000000000000
* XDM: using PAW all-electron density reconstruction? T
 TIME (promolecular grid):       15.3
 TIME (calculation of b grid):       18.4
 TIME (calculation of volumes and moments):       98.2
 
+ Volume and moments
# All results in atomic units.
# i              V                  Vfree                 M1                  M2                  M3
  1        95.4619037453       114.0071219785         7.5463603268       154.0868327287      3693.1509697125
  2        95.4619035679       114.0071219785         7.5463602999       154.0868321980      3693.1509573698
  3        94.4901443673       114.0071219785         7.7312197274       157.2433594283      3776.7924583200
  4        94.4901441620       114.0071219785         7.7312196676       157.2433587389      3776.7924645442
  5        34.3652604972        39.0349749523         3.7734304925        50.1035496711       976.4214585544
  6        34.3652602942        39.0349749523         3.7734304743        50.1035495962       976.4214616217
  7        34.0081232107        39.0349749523         3.8290419674        53.5764220156      1077.7805409671
  8        34.0081235249        39.0349749523         3.8290420386        53.5764228270      1077.7805479857
  9        34.0576307670        39.0349749523         3.8357748434        53.2284007894      1051.5012882312
 10        34.0576307056        39.0349749523         3.8357747856        53.2284002520      1051.5012815569
 11        34.3084027545        39.0349749523         3.7755329673        50.6571065169       991.0537734798
 12        34.3084024653        39.0349749523         3.7755329015        50.6571059684       991.0537696217
 13        33.9846463237        39.0349749523         3.8206042200        52.7727552838      1040.9652155835
 14        33.9846465138        39.0349749523         3.8206042759        52.7727562304      1040.9652304216
 15        33.7175651612        39.0349749523         3.8386230529        53.5268012326      1073.1038331262
 16        33.7175657340        39.0349749523         3.8386232854        53.5268038536      1073.1038578889
 17        33.8619809025        39.0349749523         3.8197003791        53.3259451729      1071.6653726742
 18        33.8619809521        39.0349749523         3.8197004380        53.3259465122      1071.6653918957
 19        34.0725665683        39.0349749523         3.8307184083        53.1459293851      1048.9862042532
 20        34.0725666005        39.0349749523         3.8307184125        53.1459296170      1048.9862095760
 21        34.3030527545        39.0349749523         3.7791812058        50.6491775083       989.5800630729
 22        34.3030527380        39.0349749523         3.7791812230        50.6491778099       989.5800669452
 23        34.3891340075        39.0349749523         3.7770799780        50.1625408803       978.2448994939
 24        34.3891338223        39.0349749523         3.7770799595        50.1625407055       978.2448967729
 25        34.0403707967        39.0349749523         3.8226509814        52.8494063611      1044.4966044978
 26        34.0403707892        39.0349749523         3.8226510083        52.8494063152      1044.4966036480
 27        34.0199628301        39.0349749523         3.8306856735        53.8148130757      1085.2479883534
 28        34.0199629440        39.0349749523         3.8306856999        53.8148137459      1085.2479996419
 29        17.8077901900        19.2806797260         4.5772795249        28.1146104611       238.1728552812
 30        17.8077902924        19.2806797260         4.5772795352        28.1146107030       238.1728576557
 31        17.7030917537        19.2806797260         4.5916436914        28.2461225828       240.4026967111
 32        17.7030920027        19.2806797260         4.5916437686        28.2461232059       240.4027040065
 33        17.7772965514        19.2806797260         4.5962527546        28.3348651997       241.9353927685
 34        17.7772967321        19.2806797260         4.5962527778        28.3348656509       241.9353980522
 35        17.7746348884        19.2806797260         4.5886149016        28.0959541535       238.0446718733
 36        17.7746349671        19.2806797260         4.5886149040        28.0959542053       238.0446717141
 37        17.7997558517        19.2806797260         4.5829737240        28.1383199138       237.7061586900
 38        17.7997558284        19.2806797260         4.5829737212        28.1383197855       237.7061566711
 39        17.8476082836        19.2806797260         4.6318140472        28.7429728547       246.6033847487
 40        17.8476082151        19.2806797260         4.6318140512        28.7429729784       246.6033836792
 41        17.7583134406        19.2806797260         4.5949549670        28.3087576684       241.3886111563
 42        17.7583135604        19.2806797260         4.5949550681        28.3087579870       241.3886128660
 43        17.7733430640        19.2806797260         4.5978188992        28.1609197306       238.4780972082
 44        17.7733430582        19.2806797260         4.5978188614        28.1609192976       238.4780911973
 45        22.0687846850        23.7788846669         4.2741951410        32.0165714234       333.1225227657
 46        22.0687847638        23.7788846669         4.2741951626        32.0165716659       333.1225253616
 
+ Dispersion coefficients
# All results in atomic units.
# i   j              C6                  C8                  C10                   Rc                  Rvdw
  1   1        91.8923859972      5628.9679117980    340797.3484331420         7.8037870269         7.7344935799
  2   1        91.8923857481      5628.9678968731    340797.3475482678         7.8037870271         7.7344935799
  2   2        91.8923854990      5628.9678819483    340797.3466633937         7.8037870273         7.7344935800
  3   1        92.5227680103      5656.4877500106    342337.4761006452         7.7992417393         7.7326550110
  3   2        92.5227677582      5656.4877349305    342337.4752067663         7.7992417395         7.7326550111
  3   3        93.1850897636      5685.8052466568    343987.1373483494         7.7947034832         7.7308192865
  4   1        92.5227675564      5656.4877317208    342337.4758103893         7.7992417472         7.7326550142
  4   2        92.5227673042      5656.4877166407    342337.4749165105         7.7992417474         7.7326550143
  4   3        93.1850893020      5685.8052280186    343987.1370413354         7.7947034911         7.7308192897
  4   4        93.1850888403      5685.8052093804    343987.1367343214         7.7947034991         7.7308192929
  5   1        42.4541803217      2145.8473532906    111867.3935590876         7.1648056146         7.4760255986
  5   2        42.4541802039      2145.8473474888    111867.3932635000         7.1648056148         7.4760255987
  5   3        42.8014611041      2158.2681164528    112516.0641048989         7.1605934630         7.4743217833
  5   4        42.8014608851      2158.2681097840    112516.0640842219         7.1605934718         7.4743217868
  5   5        19.7279232129       785.8411457976     35027.5097762055         6.4930134687         7.2042856756
  6   1        42.4541800923      2145.8473445032    111867.3932899224         7.1648056199         7.4760256007
  6   2        42.4541799745      2145.8473387014    111867.3929943348         7.1648056202         7.4760256008
  6   3        42.8014608733      2158.2681076415    112516.0638353918         7.1605934683         7.4743217854
  6   4        42.8014606542      2158.2681009727    112516.0638147149         7.1605934772         7.4743217890
  6   5        19.7279231072       785.8411428884     35027.5097181216         6.4930134748         7.2042856780
  6   6        19.7279230014       785.8411399793     35027.5096600377         6.4930134808         7.2042856805
  7   1        42.4991991298      2193.6482643803    116519.3811401139         7.2362203864         7.5049128738
  7   2        42.4991990114      2193.6482584227    116519.3808307025         7.2362203866         7.5049128739
  7   3        42.8560477861      2206.9283488699    117220.7121498541         7.2319718087         7.5031943241
  7   4        42.8560475653      2206.9283418809    117220.7121104984         7.2319718174         7.5031943276
  7   5        19.7676767168       808.5999562968     36783.3205085583         6.5694035365         7.2351854580
  7   6        19.7676766109       808.5999532738     36783.3204441871         6.5694035424         7.2351854604
  7   7        19.8106244762       831.5780184885     38594.5592439960         6.6450498237         7.2657843812
  8   1        42.4991997034      2193.6482909206    116519.3822485285         7.2362203792         7.5049128709
  8   2        42.4991995850      2193.6482849631    116519.3819391172         7.2362203794         7.5049128709
  8   3        42.8560483680      2206.9283757402    117220.7132739018         7.2319718015         7.5031943212
  8   4        42.8560481472      2206.9283687512    117220.7132345460         7.2319718102         7.5031943247
  8   5        19.7676769906       808.5999660706     36783.3208306796         6.5694035281         7.2351854546
  8   6        19.7676768848       808.5999630477     36783.3207663084         6.5694035340         7.2351854570
  8   7        19.8106247518       831.5780286263     38594.5595902020         6.6450498154         7.2657843778
  8   8        19.8106250274       831.5780387642     38594.5599364081         6.6450498072         7.2657843745
  9   1        42.5669278910      2189.7828230165    115658.8846445570         7.2199295723         7.4983232395
  9   2        42.5669277724      2189.7828170697    115658.8843375026         7.2199295725         7.4983232396
  9   3        42.9244561582      2203.0279538150    116354.5111962028         7.2156762510         7.4966027710
  9   4        42.9244559370      2203.0279468523    116354.5111607461         7.2156762598         7.4966027746
  9   5        19.7994066833       806.4738499980     36424.2036612133         6.5505989455         7.2275790009
  9   6        19.7994065773       806.4738469886     36424.2035985583         6.5505989514         7.2275790033
  9   7        19.8424609618       829.4829272079     38230.6520914439         6.6265922286         7.2583182840
  9   8        19.8424612378       829.4829373149     38230.6524327705         6.6265922203         7.2583182806
  9   9        19.8743490634       827.3789733960     37866.5860072151         6.6080298524         7.2508098028
 10   1        42.5669275570      2189.7828102377    115658.8841922554         7.2199295794         7.4983232423
 10   2        42.5669274384      2189.7828042909    115658.8838852011         7.2199295796         7.4983232424
 10   3        42.9244558165      2203.0279407194    116354.5107280748         7.2156762581         7.4966027739
 10   4        42.9244555953      2203.0279337566    116354.5106926181         7.2156762669         7.4966027774
 10   5        19.7994065179       806.4738453119     36424.2035278460         6.5505989531         7.2275790040
 10   6        19.7994064119       806.4738423025     36424.2034651910         6.5505989591         7.2275790064
 10   7        19.8424607944       829.4829222652     38230.6519442895         6.6265922362         7.2583182870
 10   8        19.8424610705       829.4829323722     38230.6522856162         6.6265922279         7.2583182837
 10   9        19.8743488958       827.3789684735     37866.5858627112         6.6080298600         7.2508098059
 10  10        19.8743487282       827.3789635509     37866.5857182073         6.6080298676         7.2508098089
 11   1        42.4272644704      2153.3471540326    112619.6637306534         7.1779502618         7.4813426084
 11   2        42.4272643526      2153.3471482079    112619.6634329230         7.1779502620         7.4813426085
 11   3        42.7751361106      2165.8735863689    113274.8050665389         7.1737289230         7.4796350768
 11   4        42.7751358915      2165.8735796518    113274.8050429950         7.1737289318         7.4796350804
 11   5        19.7170750182       789.5266185107     35308.4812503622         6.5068320747         7.2098753017
 11   6        19.7170749125       789.5266155816     35308.4811912299         6.5068320807         7.2098753041
 11   7        19.7570807412       812.2924799765     37072.6958497803         6.5831160193         7.2407321573
 11   8        19.7570810150       812.2924898065     37072.6961756463         6.5831160109         7.2407321539
 11   9        19.7887970067       810.1742714715     36712.9397198242         6.5643715245         7.2331500091
 11  10        19.7887968414       810.1742667474     36712.9395844830         6.5643715321         7.2331500122
 11  11        19.7062569139       793.2087714655     35590.7809529830         6.5206375018         7.2154595969
 12   1        42.4272639369      2153.3471325790    112619.6629371609         7.1779502717         7.4813426124
 12   2        42.4272638191      2153.3471267543    112619.6626394305         7.1779502719         7.4813426125
 12   3        42.7751355694      2165.8735646372    113274.8042599251         7.1737289329         7.4796350808
 12   4        42.7751353504      2165.8735579201    113274.8042363813         7.1737289417         7.4796350844
 12   5        19.7170747635       789.5266109264     35308.4810314195         6.5068320857         7.2098753061
 12   6        19.7170746578       789.5266079972     35308.4809722873         6.5068320917         7.2098753086
 12   7        19.7570804849       812.2924720576     37072.6956116800         6.5831160301         7.2407321617
 12   8        19.7570807587       812.2924818876     37072.6959375459         6.5831160217         7.2407321583
 12   9        19.7887967500       810.1742635838     36712.9394859088         6.5643715353         7.2331500135
 12  10        19.7887965846       810.1742588597     36712.9393505676         6.5643715430         7.2331500166
 12  11        19.7062566593       793.2087638282     35590.7807311053         6.5206375127         7.2154596014
 12  12        19.7062564047       793.2087561909     35590.7805092276         6.5206375236         7.2154596058
 13   1        42.4405260845      2179.1958993622    114940.2394231441         7.2140534687         7.4959463556
 13   2        42.4405259663      2179.1958934461    114940.2391181076         7.2140534689         7.4959463557
 13   3        42.7963273290      2192.3333093719    115629.7732177971         7.2098044475         7.4942276265
 13   4        42.7963271085      2192.3333024566    115629.7731838958         7.2098044563         7.4942276300
 13   5        19.7392495779       802.1238479713     36177.0109076055         6.5444606389         7.2250960559
 13   6        19.7392494722       802.1238449808     36177.0108456195         6.5444606449         7.2250960583
 13   7        19.7819476380       825.0494841459     37973.4343782628         6.6204960646         7.2558523856
 13   8        19.7819479132       825.0494941920     37973.4347166874         6.6204960563         7.2558523823
 13   9        19.8137357708       822.9487742630     37610.8629764144         6.6019082097         7.2483335983
 13  10        19.8137356038       822.9487693765     37610.8628333925         6.6019082173         7.2483336014
 13  11        19.7286523016       805.8132341272     36464.1660476740         6.5582381527         7.2306690602
 13  12        19.7286520457       805.8132262914     36464.1658159285         6.5582381635         7.2306690646
 13  13        19.7533236528       818.5385780367     37356.7199154042         6.5957847723         7.2458566679
 14   1        42.4405264969      2179.1959234440    114940.2406975039         7.2140534711         7.4959463566
 14   2        42.4405263787      2179.1959175279    114940.2403924674         7.2140534714         7.4959463567
 14   3        42.7963277481      2192.3333337752    115629.7745084585         7.2098044499         7.4942276275
 14   4        42.7963275276      2192.3333268599    115629.7744745571         7.2098044587         7.4942276310
 14   5        19.7392497764       802.1238573930     36177.0113177719         6.5444606410         7.2250960568
 14   6        19.7392496707       802.1238544025     36177.0112557859         6.5444606469         7.2250960592
 14   7        19.7819478382       825.0494938478     37973.4348114620         6.6204960667         7.2558523865
 14   8        19.7819481133       825.0495038940     37973.4351498867         6.6204960584         7.2558523831
 14   9        19.8137359712       822.9487839464     37610.8634056120         6.6019082118         7.2483335991
 14  10        19.8137358042       822.9487790599     37610.8632625901         6.6019082194         7.2483336022
 14  11        19.7286525001       805.8132435893     36464.1664614134         6.5582381547         7.2306690611
 14  12        19.7286522443       805.8132357535     36464.1662296680         6.5582381656         7.2306690655
 14  13        19.7533238526       818.5385876680     37356.7203414857         6.5957847744         7.2458566687
 14  14        19.7533240523       818.5385972994     37356.7207675671         6.5957847765         7.2458566696
 15   1        42.3487517749      2182.8431185770    115770.4257295517         7.2309710351         7.5027895112
 15   2        42.3487516567      2182.8431126389    115770.4254216105         7.2309710353         7.5027895113
 15   3        42.7083823574      2196.2586901180    116478.1672353481         7.2267237416         7.5010714810
 15   4        42.7083821366      2196.2586831352    116478.1671955023         7.2267237504         7.5010714845
 15   5        19.7059893171       804.6622076576     36540.2423009445         6.5636501447         7.2328582110
 15   6        19.7059892116       804.6622046540     36540.2422373972         6.5636501507         7.2328582134
 15   7        19.7501747248       827.6229704115     38345.3788588965         6.6393687054         7.2634863688
 15   8        19.7501750001       827.6229805201     38345.3792034020         6.6393686971         7.2634863655
 15   9        19.7819306198       825.5326847826     37982.8610760766         6.6208833416         7.2560090392
 15  10        19.7819304522       825.5326798366     37982.8609288080         6.6208833492         7.2560090422
 15  11        19.6955471048       808.3489202198     36828.4579921306         6.5773740415         7.2384095273
 15  12        19.6955468488       808.3489123239     36828.4577551762         6.5773740523         7.2384095316
 15  13        19.7215026061       821.1129623703     37726.8923908392         6.6147824762         7.2535412391
 15  14        19.7215028061       821.1129720488     37726.8928221576         6.6147824782         7.2535412399
 15  15        19.6905137039       823.7095948227     38098.7183605624         6.6336811832         7.2611857661
 16   1        42.3487533303      2182.8431884750    115770.4285065126         7.2309710120         7.5027895018
 16   2        42.3487532121      2182.8431825369    115770.4281985714         7.2309710123         7.5027895019
 16   3        42.7083839419      2196.2587612393    116478.1700714692         7.2267237186         7.5010714716
 16   4        42.7083837212      2196.2587542565    116478.1700316234         7.2267237273         7.5010714752
 16   5        19.7059900735       804.6622337617     36540.2431126538         6.5636501181         7.2328582002
 16   6        19.7059899680       804.6622307581     36540.2430491065         6.5636501240         7.2328582026
 16   7        19.7501754883       827.6229976123     38345.3797394599         6.6393686792         7.2634863582
 16   8        19.7501757636       827.6230077209     38345.3800839654         6.6393686710         7.2634863549
 16   9        19.7819313846       825.5327118976     37982.8619433332         6.6208833153         7.2560090285
 16  10        19.7819312170       825.5327069516     37982.8617960646         6.6208833229         7.2560090316
 16  11        19.6955478612       808.3489464875     36828.4588142402         6.5773740149         7.2384095165
 16  12        19.6955476052       808.3489385915     36828.4585772858         6.5773740257         7.2384095209
 16  13        19.7215033682       821.1129893128     37726.8932501490         6.6147824498         7.2535412284
 16  14        19.7215035682       821.1129989913     37726.8936814675         6.6147824519         7.2535412293
 16  15        19.6905144674       823.7096219861     38098.7192386472         6.6336811570         7.2611857555
 16  16        19.6905152310       823.7096491495     38098.7201167320         6.6336811308         7.2611857449
 17   1        42.3525112103      2184.0848182416    115926.0244045013         7.2332414900         7.5037079102
 17   2        42.3525110923      2184.0848123084    115926.0240965857         7.2332414903         7.5037079103
 17   3        42.7088089869      2197.3373667969    116625.6381372666         7.2289947455         7.5019901020
 17   4        42.7088087667      2197.3373598366    116625.6380983528         7.2289947542         7.5019901056
 17   5        19.7008425484       804.9395025815     36588.5508216843         6.5662580406         7.2339131049
 17   6        19.7008424430       804.9394995741     36588.5507578120         6.5662580466         7.2339131073
 17   7        19.7438757969       827.8475360877     38392.1045876386         6.6419299396         7.2645223881
 17   8        19.7438760717       827.8475461820     38392.1049319632         6.6419299314         7.2645223847
 17   9        19.7756077987       825.7581278066     38029.6127899236         6.6234589037         7.2570508540
 17  10        19.7756076318       825.7581228833     38029.6126434596         6.6234589113         7.2570508571
 17  11        19.6903026982       808.6208722613     36876.6625350641         6.5799739006         7.2394611703
 17  12        19.6903024427       808.6208643779     36876.6622983026         6.5799739114         7.2394611746
 17  13        19.7152816584       821.3417627885     37773.6165679048         6.6173614404         7.2545844301
 17  14        19.7152818579       821.3417724519     37773.6169989577         6.6173614425         7.2545844310
 17  15        19.6837313428       823.9129010934     38144.3057120840         6.6362461766         7.2622233059
 17  16        19.6837321041       823.9129281836     38144.3065880927         6.6362461504         7.2622232953
 17  17        19.6773691067       824.1334675355     38190.6904877134         6.6388092122         7.2632600538
 18   1        42.3525115415      2184.0848439161    115926.0258622018         7.2332414986         7.5037079137
 18   2        42.3525114234      2184.0848379830    115926.0255542861         7.2332414988         7.5037079138
 18   3        42.7088093259      2197.3373929096    116625.6396170540         7.2289947540         7.5019901055
 18   4        42.7088091057      2197.3373859493    116625.6395781403         7.2289947627         7.5019901090
 18   5        19.7008427129       804.9395133011     36588.5513036435         6.5662580484         7.2339131081
 18   6        19.7008426074       804.9395102937     36588.5512397713         6.5662580543         7.2339131105
 18   7        19.7438759635       827.8475470797     38392.1050964144         6.6419299475         7.2645223912
 18   8        19.7438762383       827.8475571741     38392.1054407390         6.6419299392         7.2645223879
 18   9        19.7756079656       825.7581387884     38029.6132946824         6.6234589116         7.2570508572
 18  10        19.7756077987       825.7581338650     38029.6131482185         6.6234589192         7.2570508603
 18  11        19.6903028627       808.6208830158     36876.6630211772         6.5799739084         7.2394611734
 18  12        19.6903026072       808.6208751323     36876.6627844157         6.5799739192         7.2394611778
 18  13        19.7152818246       821.3417737155     37773.6170689842         6.6173614483         7.2545844333
 18  14        19.7152820241       821.3417833789     37773.6175000372         6.6173614504         7.2545844342
 18  15        19.6837315096       823.9129120719     38144.3062191452         6.6362461844         7.2622233091
 18  16        19.6837322709       823.9129391621     38144.3070951540         6.6362461583         7.2622232985
 18  17        19.6773692728       824.1334784881     38190.6909940648         6.6388092201         7.2632600570
 18  18        19.6773694390       824.1334894406     38190.6915004162         6.6388092279         7.2632600602
 19   1        42.5514878084      2188.7835239698    115580.1304032487         7.2193539253         7.4980903903
 19   2        42.5514876899      2188.7835180273    115580.1300964928         7.2193539255         7.4980903904
 19   3        42.9082413474      2201.9890257867    116273.4938517031         7.2151002097         7.4963697623
 19   4        42.9082411263      2201.9890188330    116273.4938166942         7.2151002184         7.4963697658
 19   5        19.7909034552       806.0321432853     36393.3503173585         6.5499095775         7.2273001516
 19   6        19.7909033493       806.0321402773     36393.3502547826         6.5499095834         7.2273001540
 19   7        19.8337207157       829.0219973240     38198.3779124814         6.6259183500         7.2580457001
 19   8        19.8337209916       829.0220074218     38198.3782532989         6.6259183417         7.2580456967
 19   9        19.8655921341       826.9187069239     37834.4732632195         6.6073517760         7.2505355209
 19  10        19.8655919666       826.9187020092     37834.4731191114         6.6073517837         7.2505355240
 19  11        19.7802791050       809.7302394264     36681.8977113204         6.5636849282         7.2328722809
 19  12        19.7802788485       809.7302315465     36681.8974778246         6.5636849391         7.2328722853
 19  13        19.8050213655       822.4914085730     37578.9571143295         6.6012289472         7.2480588366
 19  14        19.8050215658       822.4914182480     37578.9575430215         6.6012289493         7.2480588375
 19  15        19.7731207772       825.0697698243     37950.5711412530         6.6202082735         7.2557359741
 19  16        19.7731215413       825.0697969078     37950.5720068455         6.6202082472         7.2557359635
 19  17        19.7668808119       825.2984846887     37997.4564087412         6.6227844126         7.2567780224
 19  18        19.7668809786       825.2984956597     37997.4569128785         6.6227844205         7.2567780256
 19  19        19.8568543975       826.4593236521     37802.4115195340         6.6066735377         7.2502611735
 20   1        42.5514878512      2188.7835290789    115580.1307788444         7.2193539294         7.4980903919
 20   2        42.5514877327      2188.7835231364    115580.1304720885         7.2193539296         7.4980903920
 20   3        42.9082413906      2201.9890309360    116273.4942296486         7.2151002137         7.4963697639
 20   4        42.9082411695      2201.9890239823    116273.4941946396         7.2151002225         7.4963697675
 20   5        19.7909034752       806.0321454526     36393.3504477326         6.5499095816         7.2273001533
 20   6        19.7909033693       806.0321424446     36393.3503851566         6.5499095876         7.2273001557
 20   7        19.8337207358       829.0219995181     38198.3780476251         6.6259183542         7.2580457017
 20   8        19.8337210117       829.0220096159     38198.3783884427         6.6259183459         7.2580456984
 20   9        19.8655921542       826.9187091181     37834.4733977123         6.6073517802         7.2505355226
 20  10        19.8655919867       826.9187042034     37834.4732536042         6.6073517878         7.2505355257
 20  11        19.7802791250       809.7302415968     36681.8978424656         6.5636849324         7.2328722826
 20  12        19.7802788685       809.7302337169     36681.8976089698         6.5636849432         7.2328722870
 20  13        19.8050213855       822.4914107586     37578.9572480250         6.6012289514         7.2480588383
 20  14        19.8050215858       822.4914204335     37578.9576767170         6.6012289535         7.2480588392
 20  15        19.7731207972       825.0697720106     37950.5712756844         6.6202082777         7.2557359758
 20  16        19.7731215613       825.0697990941     37950.5721412769         6.6202082514         7.2557359652
 20  17        19.7668808319       825.2984868746     37997.4565432403         6.6227844168         7.2567780241
 20  18        19.7668809985       825.2984978456     37997.4570473776         6.6227844247         7.2567780273
 20  19        19.8568544176       826.4593258451     37802.4116539376         6.6066735419         7.2502611752
 20  20        19.8568544377       826.4593280382     37802.4117883412         6.6066735461         7.2502611769
 21   1        42.4426045911      2153.1675571810    112550.9909383359         7.1762064696         7.4806372444
 21   2        42.4426044733      2153.1675513559    112550.9906407415         7.1762064698         7.4806372445
 21   3        42.7910132460      2165.7114756372    113206.7764128323         7.1719854131         7.4789298271
 21   4        42.7910130268      2165.7114689192    113206.7763894830         7.1719854219         7.4789298306
 21   5        19.7250453970       789.4004700312     35280.8182023956         6.5048981486         7.2090930286
 21   6        19.7250452913       789.4004671035     35280.8181434202         6.5048981546         7.2090930310
 21   7        19.7652062872       812.1803423080     37045.0291565486         6.5812092002         7.2399608490
 21   8        19.7652065612       812.1803521380     37045.0294821111         6.5812091918         7.2399608456
 21   9        19.7969372739       810.0606149612     36685.2035611101         6.5624548007         7.2323746944
 21  10        19.7969371084       810.0606102359     36685.2034258485         6.5624548084         7.2323746975
 21  11        19.7142351541       793.0848479552     35563.1036050735         6.5187079525         7.2146790943
 21  12        19.7142348993       793.0848403186     35563.1033834500         6.5187079634         7.2146790987
 21  13        19.7367577685       805.6987313896     36436.5192272130         6.5563196141         7.2298930114
 21  14        19.7367579672       805.6987408531     36436.5196407288         6.5563196161         7.2298930122
 21  15        19.7037085545       808.2390612511     36800.9984283604         6.5754648746         7.2376372692
 21  16        19.7037093115       808.2390875224     36800.9992498210         6.5754648480         7.2376372585
 21  17        19.6984110754       808.5091552961     36849.1185666495         6.5780660769         7.2386894556
 21  18        19.6984112401       808.5091660545     36849.1190525814         6.5780660846         7.2386894587
 21  19        19.7884061160       809.6161936309     36654.1531759335         6.5617677853         7.2320967966
 21  20        19.7884061360       809.6161958017     36654.1533070337         6.5617677895         7.2320967983
 21  21        19.7222228288       792.9609435455     35535.4279547382         6.5167775465         7.2138982451
 22   1        42.4426046693      2153.1675623393    112550.9911994998         7.1762064705         7.4806372448
 22   2        42.4426045515      2153.1675565141    112550.9909019055         7.1762064707         7.4806372449
 22   3        42.7910133267      2165.7114809219    113206.7766802632         7.1719854139         7.4789298274
 22   4        42.7910131075      2165.7114742038    113206.7766569139         7.1719854227         7.4789298310
 22   5        19.7250454371       789.4004721905     35280.8182880892         6.5048981492         7.2090930288
 22   6        19.7250453314       789.4004692628     35280.8182291137         6.5048981552         7.2090930313
 22   7        19.7652063280       812.1803445404     37045.0292481383         6.5812092009         7.2399608492
 22   8        19.7652066020       812.1803543704     37045.0295737008         6.5812091925         7.2399608458
 22   9        19.7969373148       810.0606171905     36685.2036518153         6.5624548014         7.2323746946
 22  10        19.7969371493       810.0606124652     36685.2035165538         6.5624548090         7.2323746977
 22  11        19.7142351942       793.0848501239     35563.1036916484         6.5187079531         7.2146790945
 22  12        19.7142349395       793.0848424873     35563.1034700249         6.5187079640         7.2146790989
 22  13        19.7367578092       805.6987336063     36436.5193171763         6.5563196147         7.2298930116
 22  14        19.7367580079       805.6987430698     36436.5197306920         6.5563196168         7.2298930125
 22  15        19.7037085955       808.2390634849     36800.9985198385         6.5754648752         7.2376372695
 22  16        19.7037093525       808.2390897562     36800.9993412991         6.5754648486         7.2376372588
 22  17        19.6984111162       808.5091575210     36849.1186578216         6.5780660775         7.2386894558
 22  18        19.6984112809       808.5091682793     36849.1191437534         6.5780660853         7.2386894590
 22  19        19.7884061568       809.6161958572     36654.1532664821         6.5617677859         7.2320967969
 22  20        19.7884061768       809.6161980280     36654.1533975823         6.5617677901         7.2320967986
 22  21        19.7222228690       792.9609457153     35535.4280412893         6.5167775472         7.2138982453
 22  22        19.7222229092       792.9609478851     35535.4281278405         6.5167775478         7.2138982456
 23   1        42.4890159186      2147.7858571974    111989.1256769746         7.1652855062         7.4762197147
 23   2        42.4890158007      2147.7858513902    111989.1253810497         7.1652855065         7.4762197148
 23   3        42.8366815837      2160.2233051261    112638.7960342484         7.1610736396         7.4745160147
 23   4        42.8366813645      2160.2232984500    112638.7960133918         7.1610736485         7.4745160183
 23   5        19.7443152933       786.5767006045     35068.8758197742         6.4935853949         7.2045170197
 23   6        19.7443151874       786.5766976926     35068.8757615891         6.4935854009         7.2045170221
 23   7        19.7841355916       809.3559692251     36826.3985086589         6.5699628499         7.2354117003
 23   8        19.7841358657       809.3559790088     36826.3988312331         6.5699628415         7.2354116969
 23   9        19.8158923843       807.2282421346     36466.9766324932         6.5511617705         7.2278066636
 23  10        19.8158922188       807.2282374431     36466.9764988940         6.5511617782         7.2278066667
 23  11        19.7334610566       790.2653092043     35350.1115158651         6.5074017607         7.2101057397
 23  12        19.7334608017       790.2653016121     35350.1112965807         6.5074017716         7.2101057441
 23  13        19.7556827465       802.8742669816     36219.5209199422         6.5450244200         7.2253241054
 23  14        19.7556829452       802.8742764125     36219.5213306075         6.5450244221         7.2253241062
 23  15        19.7224116981       805.4152908678     36583.0955785511         6.5642104361         7.2330848489
 23  16        19.7224124552       805.4153169992     36583.0963914839         6.5642104095         7.2330848381
 23  17        19.7172482768       805.6922901345     36631.4219593376         6.5668178500         7.2341395478
 23  18        19.7172484414       805.6923008644     36631.4224418678         6.5668178578         7.2341395510
 23  19        19.8073797073       806.7860355528     36436.0871515707         6.5504725394         7.2275278697
 23  20        19.8073797273       806.7860377220     36436.0872820768         6.5504725436         7.2275278714
 23  21        19.7414395664       790.1391495795     35322.4296616868         6.5054681805         7.2093236065
 23  22        19.7414396066       790.1391517411     35322.4297474930         6.5054681811         7.2093236067
 23  23        19.7607213601       787.3129498037     35110.2877187688         6.4941572055         7.2047483171
 24   1        42.4890156991      2147.7858473079    111989.1252142135         7.1652855081         7.4762197155
 24   2        42.4890155812      2147.7858415006    111989.1249182886         7.1652855083         7.4762197156
 24   3        42.8366813626      2160.2232951910    112638.7955692659         7.1610736415         7.4745160155
 24   4        42.8366811434      2160.2232885149    112638.7955484094         7.1610736503         7.4745160190
 24   5        19.7443151916       786.5766971156     35068.8756818399         6.4935853968         7.2045170205
 24   6        19.7443150858       786.5766942037     35068.8756236548         6.4935854028         7.2045170229
 24   7        19.7841354898       809.3559656225     36826.3983629955         6.5699628519         7.2354117011
 24   8        19.7841357639       809.3559754062     36826.3986855698         6.5699628434         7.2354116977
 24   9        19.8158922824       807.2282385438     36466.9764885691         6.5511617724         7.2278066644
 24  10        19.8158921169       807.2282338524     36466.9763549699         6.5511617801         7.2278066675
 24  11        19.7334609550       790.2653056963     35350.1113766873         6.5074017626         7.2101057405
 24  12        19.7334607002       790.2652981041     35350.1111574028         6.5074017735         7.2101057449
 24  13        19.7556826449       802.8742634114     36219.5207770499         6.5450244220         7.2253241062
 24  14        19.7556828436       802.8742728422     36219.5211877152         6.5450244240         7.2253241070
 24  15        19.7224115966       805.4152872847     36583.0954339761         6.5642104381         7.2330848497
 24  16        19.7224123537       805.4153134162     36583.0962469089         6.5642104114         7.2330848389
 24  17        19.7172481754       805.6922865490     36631.4218144883         6.5668178520         7.2341395486
 24  18        19.7172483400       805.6922972789     36631.4222970185         6.5668178597         7.2341395517
 24  19        19.8073796054       806.7860319639     36436.0870077740         6.5504725413         7.2275278705
 24  20        19.8073796254       806.7860341331     36436.0871382801         6.5504725455         7.2275278721
 24  21        19.7414394648       790.1391460725     35322.4295226498         6.5054681825         7.2093236073
 24  22        19.7414395050       790.1391482340     35322.4296084560         6.5054681831         7.2093236075
 24  23        19.7607212583       787.3129463114     35110.2875806622         6.4941572075         7.2047483179
 24  24        19.7607211566       787.3129428192     35110.2874425556         6.4941572094         7.2047483187
 25   1        42.4887321322      2182.4777499279    115183.0160259904         7.2158135956         7.4966583269
 25   2        42.4887320139      2182.4777440039    115183.0157203540         7.2158135959         7.4966583270
 25   3        42.8445333328      2195.6161316288    115872.9986685207         7.2115650230         7.4949397793
 25   4        42.8445331122      2195.6161247049    115872.9986343314         7.2115650317         7.4949397828
 25   5        19.7608424278       803.3764373374     36261.2770926079         6.5464872227         7.2259158091
 25   6        19.7608423220       803.3764343413     36261.2770303501         6.5464872287         7.2259158115
 25   7        19.8034502883       826.3222508161     38060.2509824818         6.6224857629         7.2566572186
 25   8        19.8034505636       826.3222608763     38060.2513217589         6.6224857546         7.2566572152
 25   9        19.8352713220       824.2197929691     37697.2339538922         6.6039091885         7.2491429942
 25  10        19.8352711548       824.2197880772     37697.2338105419         6.6039091962         7.2491429973
 25  11        19.7502215113       807.0691656051     36548.8462251522         6.5602583740         7.2314862398
 25  12        19.7502212552       807.0691577579     36548.8459927554         6.5602583849         7.2314862442
 25  13        19.7748034513       819.8040659892     37442.6272831596         6.5977884448         7.2466671534
 25  14        19.7748036512       819.8040756328     37442.6277101171         6.5977884469         7.2466671542
 25  15        19.7428792483       822.3777893793     37813.1361389006         6.6167751408         7.2543472719
 25  16        19.7428800109       822.3778163557     37813.1370002702         6.6167751144         7.2543472613
 25  17        19.7367017018       822.6088095463     37860.0101510843         6.6193525635         7.2553898394
 25  18        19.7367018681       822.6088204852     37860.0106530869         6.6193525714         7.2553898426
 25  19        19.8265570519       823.7621637044     37665.2882708537         6.6032303799         7.2488684162
 25  20        19.8265570719       823.7621658926     37665.2884047872         6.6032303841         7.2488684178
 25  21        19.7583297299       806.9544421880     36521.1604898600         6.5583408953         7.2307106196
 25  22        19.7583297706       806.9544444068     36521.1605799829         6.5583408959         7.2307106199
 25  23        19.7772920887       804.1279292017     36303.8710209095         6.5470506245         7.2261437051
 25  24        19.7772919869       804.1279256255     36303.8708776459         6.5470506264         7.2261437059
 25  25        19.7963126257       821.0715878854     37528.7020380683         6.5997909032         7.2474771478
 26   1        42.4887322635      2182.4777497099    115183.0158017097         7.2158135866         7.4966583232
 26   2        42.4887321452      2182.4777437859    115183.0154960733         7.2158135868         7.4966583233
 26   3        42.8445334679      2195.6161315292    115872.9984502722         7.2115650139         7.4949397756
 26   4        42.8445332473      2195.6161246053    115872.9984160828         7.2115650226         7.4949397791
 26   5        19.7608424943       803.3764368032     36261.2770095435         6.5464872135         7.2259158053
 26   6        19.7608423885       803.3764338071     36261.2769472857         6.5464872195         7.2259158078
 26   7        19.8034503558       826.3222503898     38060.2509002711         6.6224857538         7.2566572149
 26   8        19.8034506312       826.3222604499     38060.2512395482         6.6224857455         7.2566572115
 26   9        19.8352713896       824.2197925308     37697.2338711723         6.6039091793         7.2491429905
 26  10        19.8352712225       824.2197876389     37697.2337278221         6.6039091870         7.2491429936
 26  11        19.7502215778       807.0691650883     36548.8461420509         6.5602583648         7.2314862361
 26  12        19.7502213217       807.0691572411     36548.8459096541         6.5602583757         7.2314862404
 26  13        19.7748035187       819.8040655431     37442.6272006742         6.5977884356         7.2466671497
 26  14        19.7748037186       819.8040751866     37442.6276276316         6.5977884377         7.2466671505
 26  15        19.7428793160       822.3777889659     37813.1360576883         6.6167751316         7.2543472682
 26  16        19.7428800786       822.3778159423     37813.1369190580         6.6167751053         7.2543472576
 26  17        19.7367017692       822.6088091210     37860.0100693171         6.6193525543         7.2553898357
 26  18        19.7367019355       822.6088200598     37860.0105713196         6.6193525622         7.2553898389
 26  19        19.8265571195       823.7621632633     37665.2881880269         6.6032303707         7.2488684124
 26  20        19.8265571395       823.7621654515     37665.2883219604         6.6032303749         7.2488684141
 26  21        19.7583297965       806.9544416711     36521.1604067914         6.5583408861         7.2307106159
 26  22        19.7583298372       806.9544438899     36521.1604969144         6.5583408867         7.2307106162
 26  23        19.7772921552       804.1279286677     36303.8709378103         6.5470506153         7.2261437014
 26  24        19.7772920535       804.1279250916     36303.8707945467         6.5470506172         7.2261437022
 26  25        19.7963126931       821.0715874384     37528.7019554577         6.5997908941         7.2474771441
 26  26        19.7963127605       821.0715869914     37528.7018728470         6.5997908849         7.2474771404
 27   1        42.5155661983      2198.0789240803    116924.7539007088         7.2418072625         7.5071727652
 27   2        42.5155660798      2198.0789181104    116924.7535901941         7.2418072627         7.5071727652
 27   3        42.8725820210      2211.3957658351    117628.6541614217         7.2375559493         7.5054531090
 27   4        42.8725818001      2211.3957588246    117628.6541208589         7.2375559580         7.5054531125
 27   5        19.7753504681       810.5817474867     36931.9316191053         6.5753770395         7.2376017400
 27   6        19.7753503622       810.5817444536     36931.9315541964         6.5753770454         7.2376017424
 27   7        19.8183249756       833.5727772024     38747.5273706556         6.6509657625         7.2681773784
 27   8        19.8183252513       833.5727873676     38747.5277186976         6.6509657542         7.2681773751
 27   9        19.8501739578       831.4795628424     38383.1602616855         6.6325347540         7.2607220355
 27  10        19.8501737904       831.4795578834     38383.1601136261         6.6325347616         7.2607220386
 27  11        19.7647512659       814.2748470877     37221.9987961501         6.5890812604         7.2431450973
 27  12        19.7647510095       814.2748391440     37221.9985566129         6.5890812711         7.2431451017
 27  13        19.7896363826       827.0392601644     38125.1215332569         6.6264418793         7.2582574677
 27  14        19.7896365828       827.0392698871     38125.1219682301         6.6264418814         7.2582574685
 27  15        19.7578561655       829.6112776968     38497.6145186846         6.6452902109         7.2658816178
 27  16        19.7578569293       829.6113049733     38497.6154041780         6.6452901848         7.2658816072
 27  17        19.7515510972       829.8352441884     38544.3843641816         6.6478478684         7.2669161903
 27  18        19.7515512638       829.8352551990     38544.3848749560         6.6478478763         7.2669161934
 27  19        19.8414296073       831.0176867190     38350.7964892158         6.6318620597         7.2604499306
 27  20        19.8414296274       831.0176889157     38350.7966247648         6.6318620639         7.2604499323
 27  21        19.7728804162       814.1633699897     37194.3074139158         6.5871765254         7.2423746320
 27  22        19.7728804571       814.1633722265     37194.3075059109         6.5871765261         7.2423746323
 27  23        19.7918158414       811.3394470899     36975.1514275511         6.5759353885         7.2378275921
 27  24        19.7918157396       811.3394434773     36975.1512812282         6.5759353905         7.2378275929
 27  25        19.8111469473       828.3143172908     38212.1790771105         6.6284287513         7.2590611574
 27  26        19.8111470149       828.3143168701     38212.1789948302         6.6284287421         7.2590611537
 27  27        19.8260285009       835.5689623930     38900.8719131576         6.6568772457         7.2705685734
 28   1        42.5155664093      2198.0789399713    116924.7548502561         7.2418072682         7.5071727675
 28   2        42.5155662909      2198.0789340014    116924.7545397415         7.2418072684         7.5071727676
 28   3        42.8725822352      2211.3957819012    117628.6551200105         7.2375559550         7.5054531113
 28   4        42.8725820143      2211.3957748907    117628.6550794477         7.2375559637         7.5054531148
 28   5        19.7753505690       810.5817539359     36931.9319328022         6.5753770450         7.2376017422
 28   6        19.7753504631       810.5817509028     36931.9318678934         6.5753770509         7.2376017446
 28   7        19.8183250771       833.5727837924     38747.5276993862         6.6509657680         7.2681773806
 28   8        19.8183253528       833.5727939576     38747.5280474282         6.6509657598         7.2681773773
 28   9        19.8501740595       831.4795694256     38383.1605880192         6.6325347596         7.2607220377
 28  10        19.8501738921       831.4795644666     38383.1604399598         6.6325347672         7.2607220408
 28  11        19.7647513667       814.2748535560     37221.9991122344         6.5890812659         7.2431450995
 28  12        19.7647511103       814.2748456123     37221.9988726971         6.5890812767         7.2431451039
 28  13        19.7896364839       827.0392667164     38125.1218573955         6.6264418848         7.2582574699
 28  14        19.7896366841       827.0392764392     38125.1222923688         6.6264418869         7.2582574707
 28  15        19.7578562669       829.6112842675     38497.6148458063         6.6452902164         7.2658816200
 28  16        19.7578570307       829.6113115441     38497.6157312997         6.6452901903         7.2658816095
 28  17        19.7515511984       829.8352507528     38544.3846912935         6.6478478739         7.2669161925
 28  18        19.7515513650       829.8352617634     38544.3852020680         6.6478478818         7.2669161957
 28  19        19.8414297089       831.0176932975     38350.7968152459         6.6318620652         7.2604499329
 28  20        19.8414297290       831.0176954942     38350.7969507949         6.6318620694         7.2604499346
 28  21        19.7728805171       814.1633764592     37194.3077298502         6.5871765309         7.2423746342
 28  22        19.7728805579       814.1633786960     37194.3078218453         6.5871765316         7.2423746345
 28  23        19.7918159424       811.3394535450     36975.1517415999         6.5759353941         7.2378275944
 28  24        19.7918158406       811.3394499324     36975.1515952770         6.5759353960         7.2378275952
 28  25        19.8111470488       828.3143238511     38212.1794018799         6.6284287568         7.2590611596
 28  26        19.8111471164       828.3143234303     38212.1793195995         6.6284287476         7.2590611559
 28  27        19.8260286024       835.5689689941     38900.8722430925         6.6568772513         7.2705685756
 28  28        19.8260287039       835.5689755953     38900.8725730275         6.6568772568         7.2705685779
 29   1        21.2131133067       845.1592317916     34144.7169107663         6.3340506593         7.1399852192
 29   2        21.2131132380       845.1592291315     34144.7168060959         6.3340506596         7.1399852193
 29   3        21.5888382042       857.5397894783     34666.8299875043         6.3302959011         7.1384664195
 29   4        21.5888380607       857.5397859855     34666.8299929677         6.3302959119         7.1384664238
 29   5        10.2850095564       299.6053157539      9916.0642163014         5.5741816044         6.8326181865
 29   6        10.2850095045       299.6053149208      9916.0642202682         5.5741816120         6.8326181896
 29   7        10.3799432235       313.4898276627     10670.3389573610         5.6640247781         6.8689597502
 29   8        10.3799433951       313.4898320972     10670.3390503723         5.6640247670         6.8689597457
 29   9        10.3975064626       312.2221630083     10504.7267278711         5.6393738159         6.8589884360
 29  10        10.3975063362       312.2221602878     10504.7266683478         5.6393738250         6.8589884397
 29  11        10.2858434188       301.7776420759     10030.5730401132         5.5900066386         6.8390194128
 29  12        10.2858432595       301.7776387678     10030.5729813001         5.5900066521         6.8390194183
 29  13        10.3605081521       310.1140805487     10415.6114823636         5.6324319896         6.8561804673
 29  14        10.3605082832       310.1140851825     10415.6116242357         5.6324319909         6.8561804678
 29  15        10.3805704947       312.7636970670     10618.2901106902         5.6570141168         6.8661239377
 29  16        10.3805710234       312.7637104781     10618.2903906023         5.6570140818         6.8661239236
 29  17        10.3503877607       312.1103977449     10612.6934732149         5.6604085841         6.8674969998
 29  18        10.3503878886       312.1104037030     10612.6936551080         5.6604085906         6.8674970024
 29  19        10.3877986920       311.8806048579     10487.9352775911         5.6384262433         6.8586051429
 29  20        10.3877987029       311.8806058952     10487.9353235369         5.6384262480         6.8586051448
 29  21        10.2932954564       301.7639010599     10020.5992086923         5.5875995404         6.8380457416
 29  22        10.2932954922       301.7639023965     10020.5992449788         5.5875995406         6.8380457416
 29  23        10.2943544359       299.9205976544      9930.6063711792         5.5749662576         6.8329355787
 29  24        10.2943543843       299.9205964432      9930.6063377779         5.5749662599         6.8329355796
 29  25        10.3685599643       310.5519282123     10443.2232531359         5.6350829891         6.8572527966
 29  26        10.3685600208       310.5519282045     10443.2232363352         5.6350829793         6.8572527926
 29  27        10.3842144849       314.4946529185     10727.7694580438         5.6710299457         6.8717933405
 29  28        10.3842145485       314.4946560588     10727.7695652187         5.6710299511         6.8717933427
 29  29         7.9454213065       146.4073302276      2912.6894533307         4.3762029963         6.3480358395
 30   1        21.2131134146       845.1592373321     34144.7171724903         6.3340506634         7.1399852208
 30   2        21.2131133459       845.1592346720     34144.7170678199         6.3340506637         7.1399852209
 30   3        21.5888383136       857.5397950876     34666.8302525089         6.3302959052         7.1384664211
 30   4        21.5888381701       857.5397915949     34666.8302579723         6.3302959160         7.1384664255
 30   5        10.2850096078       299.6053178541      9916.0642965357         5.5741816087         6.8326181882
 30   6        10.2850095559       299.6053170209      9916.0643005024         5.5741816163         6.8326181913
 30   7        10.3799432752       313.4898298331     10670.3390427053         5.6640247824         6.8689597520
 30   8        10.3799434468       313.4898342677     10670.3391357166         5.6640247712         6.8689597474
 30   9        10.3975065144       312.2221651734     10504.7268122459         5.6393738202         6.8589884377
 30  10        10.3975063880       312.2221624530     10504.7267527225         5.6393738293         6.8589884414
 30  11        10.2858434702       301.7776441866     10030.5731211441         5.5900066429         6.8390194145
[...]
  Evdw   =  -1.529782328136E-01 Hartree,  -3.059564656272E-01 Ry
  Evdw6 =  -7.449073843439E-02 Hartree,  -1.489814768688E-01 Ry
  Evdw8 =  -4.475117369974E-02 Hartree,  -8.950234739948E-02 Ry
  Evdw10 =  -3.373632067946E-02 Hartree,  -6.747264135893E-02 Ry
  Evdw9  =   0.000000000000E+00 Hartree,   0.000000000000E+00 Ry
  Fvdw (01) =   5.764845324581E-05  -4.149810655621E-04  -2.730356497292E-04  Hartree/bohr
            =   1.152969064916E-04  -8.299621311242E-04  -5.460712994584E-04  Ry/bohr
  Fvdw (02) =   5.764845106529E-05   4.149810531982E-04  -2.730356386028E-04  Hartree/bohr
            =   1.152969021306E-04   8.299621063965E-04  -5.460712772055E-04  Ry/bohr
  Fvdw (03) =   1.063442540307E-04   2.773761876913E-04  -4.387818278674E-04  Hartree/bohr
            =   2.126885080614E-04   5.547523753827E-04  -8.775636557347E-04  Ry/bohr
  Fvdw (04) =   1.063442574307E-04  -2.773761807623E-04  -4.387818171463E-04  Hartree/bohr
            =   2.126885148614E-04  -5.547523615246E-04  -8.775636342926E-04  Ry/bohr
  Fvdw (05) =   2.471596717578E-04  -1.033754315443E-04   1.261331133615E-04  Hartree/bohr
            =   4.943193435157E-04  -2.067508630886E-04   2.522662267231E-04  Ry/bohr
  Fvdw (06) =   2.471596670013E-04   1.033754283871E-04   1.261331180340E-04  Hartree/bohr
            =   4.943193340026E-04   2.067508567742E-04   2.522662360679E-04  Ry/bohr
  Fvdw (07) =  -2.418763344823E-04   1.144893607719E-04  -7.041863177557E-05  Hartree/bohr
            =  -4.837526689647E-04   2.289787215437E-04  -1.408372635511E-04  Ry/bohr
  Fvdw (08) =  -2.418763452371E-04  -1.144893612725E-04  -7.041863319117E-05  Hartree/bohr
            =  -4.837526904742E-04  -2.289787225450E-04  -1.408372663823E-04  Ry/bohr
  Fvdw (09) =  -3.343376706773E-04   6.567237252060E-05  -1.463624739068E-04  Hartree/bohr
            =  -6.686753413546E-04   1.313447450412E-04  -2.927249478135E-04  Ry/bohr
  Fvdw (10) =  -3.343376712961E-04  -6.567236705965E-05  -1.463624676489E-04  Hartree/bohr
            =  -6.686753425922E-04  -1.313447341193E-04  -2.927249352977E-04  Ry/bohr
  Fvdw (11) =  -2.160120430602E-04  -1.374427733206E-05  -1.307258985292E-05  Hartree/bohr
            =  -4.320240861203E-04  -2.748855466412E-05  -2.614517970584E-05  Ry/bohr
  Fvdw (12) =  -2.160120393071E-04   1.374427701824E-05  -1.307258106570E-05  Hartree/bohr
            =  -4.320240786143E-04   2.748855403647E-05  -2.614516213139E-05  Ry/bohr
  Fvdw (13) =   4.833559745251E-04  -1.717966492392E-04   1.502689796661E-04  Hartree/bohr
            =   9.667119490502E-04  -3.435932984783E-04   3.005379593321E-04  Ry/bohr
  Fvdw (14) =   4.833559782419E-04   1.717966472801E-04   1.502689834819E-04  Hartree/bohr
            =   9.667119564838E-04   3.435932945601E-04   3.005379669639E-04  Ry/bohr
  Fvdw (15) =   2.575529289668E-04  -4.956304216506E-05   2.247512914737E-04  Hartree/bohr
            =   5.151058579336E-04  -9.912608433012E-05   4.495025829474E-04  Ry/bohr
  Fvdw (16) =   2.575529440427E-04   4.956304341813E-05   2.247513022046E-04  Hartree/bohr
            =   5.151058880855E-04   9.912608683625E-05   4.495026044091E-04  Ry/bohr
  Fvdw (17) =   2.719480873664E-04   1.446009993251E-04   1.341226130954E-04  Hartree/bohr
            =   5.438961747329E-04   2.892019986503E-04   2.682452261907E-04  Ry/bohr
  Fvdw (18) =   2.719480844326E-04  -1.446010010911E-04   1.341226173087E-04  Hartree/bohr
            =   5.438961688652E-04  -2.892020021822E-04   2.682452346173E-04  Ry/bohr
  Fvdw (19) =   3.805245877040E-04   8.982129813113E-05   3.847436709512E-05  Hartree/bohr
            =   7.610491754079E-04   1.796425962623E-04   7.694873419024E-05  Ry/bohr
  Fvdw (20) =   3.805245914581E-04  -8.982129307492E-05   3.847437478073E-05  Hartree/bohr
            =   7.610491829163E-04  -1.796425861498E-04   7.694874956146E-05  Ry/bohr
  Fvdw (21) =   2.061243044013E-04  -8.084021167571E-06   8.163429444514E-05  Hartree/bohr
            =   4.122486088025E-04  -1.616804233514E-05   1.632685888903E-04  Ry/bohr
  Fvdw (22) =   2.061242995309E-04   8.084021081870E-06   8.163430207212E-05  Hartree/bohr
            =   4.122485990619E-04   1.616804216374E-05   1.632686041442E-04  Ry/bohr
  Fvdw (23) =  -2.715205382219E-04  -9.711451779172E-05   4.893159704601E-06  Hartree/bohr
            =  -5.430410764438E-04  -1.942290355834E-04   9.786319409202E-06  Ry/bohr
  Fvdw (24) =  -2.715205377598E-04   9.711451829047E-05   4.893161795953E-06  Hartree/bohr
            =  -5.430410755196E-04   1.942290365809E-04   9.786323591906E-06  Ry/bohr
  Fvdw (25) =  -4.857146337809E-04  -1.467571233038E-04  -9.923261209090E-05  Hartree/bohr
            =  -9.714292675618E-04  -2.935142466076E-04  -1.984652241818E-04  Ry/bohr
  Fvdw (26) =  -4.857146352188E-04   1.467571230201E-04  -9.923261106355E-05  Hartree/bohr
            =  -9.714292704377E-04   2.935142460402E-04  -1.984652221271E-04  Ry/bohr
  Fvdw (27) =  -3.442168638285E-04  -3.806089203956E-05  -1.817160569880E-05  Hartree/bohr
            =  -6.884337276570E-04  -7.612178407913E-05  -3.634321139760E-05  Ry/bohr
  Fvdw (28) =  -3.442168647449E-04   3.806089020827E-05  -1.817160885859E-05  Hartree/bohr
            =  -6.884337294898E-04   7.612178041654E-05  -3.634321771718E-05  Ry/bohr
  Fvdw (29) =   2.122807805619E-04  -9.953756678049E-05   1.169027829124E-04  Hartree/bohr
            =   4.245615611238E-04  -1.990751335610E-04   2.338055658249E-04  Ry/bohr
  Fvdw (30) =   2.122807811388E-04   9.953756490137E-05   1.169027846747E-04  Hartree/bohr
            =   4.245615622776E-04   1.990751298027E-04   2.338055693493E-04  Ry/bohr
  Fvdw (31) =  -1.209918006816E-06   4.932306925233E-05   1.018199158667E-04  Hartree/bohr
            =  -2.419836013633E-06   9.864613850465E-05   2.036398317334E-04  Ry/bohr
  Fvdw (32) =  -1.209919606178E-06  -4.932307188187E-05   1.018199160849E-04  Hartree/bohr
            =  -2.419839212357E-06  -9.864614376374E-05   2.036398321698E-04  Ry/bohr
  Fvdw (33) =   3.834632844805E-05   5.307294350860E-05   9.385417044291E-05  Hartree/bohr
            =   7.669265689610E-05   1.061458870172E-04   1.877083408858E-04  Ry/bohr
  Fvdw (34) =   3.834633086286E-05  -5.307294179638E-05   9.385417194358E-05  Hartree/bohr
            =   7.669266172572E-05  -1.061458835928E-04   1.877083438872E-04  Ry/bohr
  Fvdw (35) =   1.315737230662E-04   1.081006554961E-04  -2.006866451243E-05  Hartree/bohr
            =   2.631474461324E-04   2.162013109921E-04  -4.013732902487E-05  Ry/bohr
  Fvdw (36) =   1.315737259857E-04  -1.081006516519E-04  -2.006865680434E-05  Hartree/bohr
            =   2.631474519713E-04  -2.162013033037E-04  -4.013731360868E-05  Ry/bohr
  Fvdw (37) =  -2.562493279830E-04  -9.008728169946E-05   2.367193927204E-05  Hartree/bohr
            =  -5.124986559660E-04  -1.801745633989E-04   4.734387854407E-05  Ry/bohr
  Fvdw (38) =  -2.562493284444E-04   9.008727952462E-05   2.367193970787E-05  Hartree/bohr
            =  -5.124986568889E-04   1.801745590492E-04   4.734387941573E-05  Ry/bohr
  Fvdw (39) =  -5.243303678733E-05   8.767150658406E-06   4.785442541289E-05  Hartree/bohr
            =  -1.048660735747E-04   1.753430131681E-05   9.570885082578E-05  Ry/bohr
  Fvdw (40) =  -5.243303851680E-05  -8.767153095252E-06   4.785442206459E-05  Hartree/bohr
            =  -1.048660770336E-04  -1.753430619050E-05   9.570884412919E-05  Ry/bohr
  Fvdw (41) =  -6.034486756438E-05   2.203516197833E-05   4.150146805874E-05  Hartree/bohr
            =  -1.206897351288E-04   4.407032395666E-05   8.300293611749E-05  Ry/bohr
  Fvdw (42) =  -6.034486296221E-05  -2.203515582016E-05   4.150146144234E-05  Hartree/bohr
            =  -1.206897259244E-04  -4.407031164032E-05   8.300292288468E-05  Ry/bohr
  Fvdw (43) =  -1.302459118117E-04   9.829435807331E-05  -8.428071963415E-05  Hartree/bohr
            =  -2.604918236234E-04   1.965887161466E-04  -1.685614392683E-04  Ry/bohr
  Fvdw (44) =  -1.302459133976E-04  -9.829435530048E-05  -8.428071712931E-05  Hartree/bohr
            =  -2.604918267953E-04  -1.965887106010E-04  -1.685614342586E-04  Ry/bohr
  Fvdw (45) =   1.302048882694E-06  -7.506603555786E-05  -2.245778533800E-05  Hartree/bohr
            =   2.604097765389E-06  -1.501320711157E-04  -4.491557067599E-05  Ry/bohr
  Fvdw (46) =   1.302048547895E-06   7.506603325414E-05  -2.245778448642E-05  Hartree/bohr
            =   2.604097095791E-06   1.501320665083E-04  -4.491556897284E-05  Ry/bohr
  sigma_vdw (Hy/bohr**3) =  -3.665981009107E-05  -2.354479554448E-15   1.283087317939E-06  
                            -2.354479554448E-15  -3.649176443838E-05   9.916762680158E-15  
                             1.283087317939E-06   9.916762680158E-15  -4.018548590563E-05  
  sigma_vdw (Ry/bohr**3) =  -7.331962018213E-05  -4.708959108896E-15   2.566174635877E-06  
                            -4.708959108896E-15  -7.298352887675E-05   1.983352536032E-14  
                             2.566174635877E-06   1.983352536032E-14  -8.037097181126E-05  
  sigma_vdw (GPa) =  -1.078568668752E+00  -6.927116840855E-11   3.774972584319E-02  
                     -6.927116840855E-11  -1.073624595788E+00   2.917611819508E-10  
                      3.774972584319E-02   2.917611819508E-10  -1.182297614982E+00  
 
 TIME (final):      192.9

!    total energy              =   -2191.04115339 Ry
     Harris-Foulkes estimate   =   -2191.04115339 Ry
     estimated scf accuracy    <          1.3E-09 Ry

     total all-electron energy =    -23425.470660 Ry

     The total energy is the sum of the following terms:

     one-electron contribution =    -795.09754396 Ry
     hartree contribution      =     512.50281148 Ry
     xc contribution           =    -321.96371328 Ry
     ewald contribution        =    -602.32083389 Ry
     Dispersion XDM Correction =      -0.30595647 Ry
     Uncorrected (XDM) energy  =   -2190.73519692 Ry
     one-center paw contrib.   =    -983.85591726 Ry

     convergence has been achieved in  34 iterations

     Forces acting on atoms (Ry/au):

     atom    1 type  4   force =     0.00015291    0.00054169    0.00078147
     atom    2 type  4   force =     0.00015291   -0.00054169    0.00078147
     atom    3 type  4   force =    -0.00045551    0.00029906    0.00000098
     atom    4 type  4   force =    -0.00045551   -0.00029906    0.00000098
     atom    5 type  1   force =     0.00002915    0.00030502   -0.00082050
     atom    6 type  1   force =     0.00002915   -0.00030502   -0.00082050
     atom    7 type  1   force =     0.00070031    0.00016093    0.00001716
     atom    8 type  1   force =     0.00070031   -0.00016093    0.00001716
     atom    9 type  1   force =    -0.00048772    0.00013354   -0.00001452
     atom   10 type  1   force =    -0.00048772   -0.00013354   -0.00001452
     atom   11 type  1   force =    -0.00010541    0.00006975    0.00012232
     atom   12 type  1   force =    -0.00010541   -0.00006975    0.00012232
     atom   13 type  1   force =    -0.00027230   -0.00045490    0.00032697
     atom   14 type  1   force =    -0.00027230    0.00045490    0.00032697
     atom   15 type  1   force =    -0.00018496    0.00026784   -0.00050815
     atom   16 type  1   force =    -0.00018496   -0.00026784   -0.00050815
     atom   17 type  1   force =    -0.00014930   -0.00075430   -0.00059627
     atom   18 type  1   force =    -0.00014930    0.00075430   -0.00059627
     atom   19 type  1   force =     0.00035627    0.00035267    0.00024766
     atom   20 type  1   force =     0.00035627   -0.00035267    0.00024766
     atom   21 type  1   force =    -0.00013976   -0.00011258   -0.00015274
     atom   22 type  1   force =    -0.00013976    0.00011258   -0.00015274
     atom   23 type  1   force =     0.00010635    0.00041171   -0.00025486
     atom   24 type  1   force =     0.00010635   -0.00041171   -0.00025486
     atom   25 type  1   force =     0.00000877   -0.00048323    0.00016577
     atom   26 type  1   force =     0.00000877    0.00048323    0.00016577
     atom   27 type  1   force =     0.00025463   -0.00012796    0.00015078
     atom   28 type  1   force =     0.00025463    0.00012796    0.00015078
     atom   29 type  2   force =     0.00008081   -0.00011359   -0.00037928
     atom   30 type  2   force =     0.00008081    0.00011359   -0.00037928
     atom   31 type  2   force =    -0.00026143   -0.00051442    0.00040585
     atom   32 type  2   force =    -0.00026143    0.00051442    0.00040585
     atom   33 type  2   force =    -0.00014654   -0.00022677    0.00078717
     atom   34 type  2   force =    -0.00014654    0.00022677    0.00078717
     atom   35 type  2   force =     0.00024022    0.00012655   -0.00020931
     atom   36 type  2   force =     0.00024022   -0.00012655   -0.00020931
     atom   37 type  2   force =     0.00031927   -0.00010157   -0.00046522
     atom   38 type  2   force =     0.00031927    0.00010157   -0.00046522
     atom   39 type  2   force =    -0.00011675    0.00042422    0.00049414
     atom   40 type  2   force =    -0.00011675   -0.00042422    0.00049414
     atom   41 type  2   force =     0.00005397    0.00005660    0.00029405
     atom   42 type  2   force =     0.00005397   -0.00005660    0.00029405
     atom   43 type  2   force =    -0.00009661   -0.00048433   -0.00014509
     atom   44 type  2   force =    -0.00009661    0.00048433   -0.00014509
     atom   45 type  3   force =     0.00011364    0.00068770   -0.00024839
     atom   46 type  3   force =     0.00011364   -0.00068770   -0.00024839

     Total force =     0.004151     Total SCF correction =     0.000076

     Total XDM Dispersion Force =     0.004309

     XDM Dispersion forces acting on atoms:
     atom    1 type  4   force =     0.00011530   -0.00082996   -0.00054607
     atom    2 type  4   force =     0.00011530    0.00082996   -0.00054607
     atom    3 type  4   force =     0.00021269    0.00055475   -0.00087756
     atom    4 type  4   force =     0.00021269   -0.00055475   -0.00087756
     atom    5 type  1   force =     0.00049432   -0.00020675    0.00025227
     atom    6 type  1   force =     0.00049432    0.00020675    0.00025227
     atom    7 type  1   force =    -0.00048375    0.00022898   -0.00014084
     atom    8 type  1   force =    -0.00048375   -0.00022898   -0.00014084
     atom    9 type  1   force =    -0.00066868    0.00013134   -0.00029272
     atom   10 type  1   force =    -0.00066868   -0.00013134   -0.00029272
     atom   11 type  1   force =    -0.00043202   -0.00002749   -0.00002615
     atom   12 type  1   force =    -0.00043202    0.00002749   -0.00002615
     atom   13 type  1   force =     0.00096671   -0.00034359    0.00030054
     atom   14 type  1   force =     0.00096671    0.00034359    0.00030054
     atom   15 type  1   force =     0.00051511   -0.00009913    0.00044950
     atom   16 type  1   force =     0.00051511    0.00009913    0.00044950
     atom   17 type  1   force =     0.00054390    0.00028920    0.00026825
     atom   18 type  1   force =     0.00054390   -0.00028920    0.00026825
     atom   19 type  1   force =     0.00076105    0.00017964    0.00007695
     atom   20 type  1   force =     0.00076105   -0.00017964    0.00007695
     atom   21 type  1   force =     0.00041225   -0.00001617    0.00016327
     atom   22 type  1   force =     0.00041225    0.00001617    0.00016327
     atom   23 type  1   force =    -0.00054304   -0.00019423    0.00000979
     atom   24 type  1   force =    -0.00054304    0.00019423    0.00000979
     atom   25 type  1   force =    -0.00097143   -0.00029351   -0.00019847
     atom   26 type  1   force =    -0.00097143    0.00029351   -0.00019847
     atom   27 type  1   force =    -0.00068843   -0.00007612   -0.00003634
     atom   28 type  1   force =    -0.00068843    0.00007612   -0.00003634
     atom   29 type  2   force =     0.00042456   -0.00019908    0.00023381
     atom   30 type  2   force =     0.00042456    0.00019908    0.00023381
     atom   31 type  2   force =    -0.00000242    0.00009865    0.00020364
     atom   32 type  2   force =    -0.00000242   -0.00009865    0.00020364
     atom   33 type  2   force =     0.00007669    0.00010615    0.00018771
     atom   34 type  2   force =     0.00007669   -0.00010615    0.00018771
     atom   35 type  2   force =     0.00026315    0.00021620   -0.00004014
     atom   36 type  2   force =     0.00026315   -0.00021620   -0.00004014
     atom   37 type  2   force =    -0.00051250   -0.00018017    0.00004734
     atom   38 type  2   force =    -0.00051250    0.00018017    0.00004734
     atom   39 type  2   force =    -0.00010487    0.00001753    0.00009571
     atom   40 type  2   force =    -0.00010487   -0.00001753    0.00009571
     atom   41 type  2   force =    -0.00012069    0.00004407    0.00008300
     atom   42 type  2   force =    -0.00012069   -0.00004407    0.00008300
     atom   43 type  2   force =    -0.00026049    0.00019659   -0.00016856
     atom   44 type  2   force =    -0.00026049   -0.00019659   -0.00016856
     atom   45 type  3   force =     0.00000260   -0.00015013   -0.00004492
     atom   46 type  3   force =     0.00000260    0.00015013   -0.00004492


     entering subroutine stress ...

          total   stress  (Ry/bohr**3)                   (kbar)     P=    0.10
  -0.00000134   0.00000000  -0.00000179         -0.20      0.00     -0.26
   0.00000000   0.00000088   0.00000000          0.00      0.13      0.00
  -0.00000179   0.00000000   0.00000244         -0.26      0.00      0.36


     Writing output data file epxars_2.save
 
     init_run     :     28.35s CPU     29.58s WALL (       2 calls)
     electrons    :   1133.26s CPU   1168.77s WALL (       2 calls)
     forces       :     27.19s CPU     27.48s WALL (       2 calls)
     stress       :     60.09s CPU     60.95s WALL (       2 calls)

     Called by init_run:
     wfcinit      :      7.15s CPU      7.65s WALL (       2 calls)
     potinit      :      8.27s CPU      8.43s WALL (       2 calls)

     Called by electrons:
     c_bands      :    527.51s CPU    544.16s WALL (      64 calls)
     sum_band     :    272.66s CPU    282.10s WALL (      64 calls)
     v_of_rho     :     24.13s CPU     24.66s WALL (      66 calls)
     newd         :     84.52s CPU     86.65s WALL (      66 calls)
     mix_rho      :     15.67s CPU     16.15s WALL (      64 calls)

     Called by c_bands:
     init_us_2    :      3.40s CPU      3.42s WALL (     268 calls)
     cegterg      :    520.41s CPU    531.64s WALL (     128 calls)

     Called by *egterg:
     h_psi        :    324.94s CPU    329.84s WALL (     642 calls)
     s_psi        :     39.85s CPU     39.88s WALL (     642 calls)
     g_psi        :      2.16s CPU      2.17s WALL (     510 calls)
     cdiaghg      :     52.17s CPU     52.36s WALL (     638 calls)

     Called by h_psi:
     add_vuspsi   :     40.38s CPU     40.39s WALL (     642 calls)

     General routines
     calbec       :     58.95s CPU     60.84s WALL (     778 calls)
     fft          :     18.13s CPU     23.89s WALL (    1964 calls)
     ffts         :      0.96s CPU      0.99s WALL (     260 calls)
     fftw         :    360.77s CPU    369.42s WALL (  148010 calls)
     interpolate  :      3.73s CPU      3.82s WALL (     260 calls)
     davcio       :      0.01s CPU      6.50s WALL (     396 calls)
 
     Parallel routines
     fft_scatter  :     76.81s CPU     91.48s WALL (  150234 calls)
 
     PAW routines
     PAW_pot      :     17.11s CPU     17.33s WALL (      66 calls)
     PAW_ddot     :     10.41s CPU     10.68s WALL (    2312 calls)
     PAW_symme    :      0.01s CPU      0.02s WALL (     130 calls)
 
     PWSCF        : 20m50.15s CPU    21m28.96s WALL

 
   This run was terminated on:  17:32:37  18Oct2012            

=------------------------------------------------------------------------------=
   JOB DONE.
=------------------------------------------------------------------------------=
