
     Program PWSCF v.4.3.2      starts on 15Oct2012 at 21: 5:16 

     This program is part of the open-source Quantum ESPRESSO suite
     for quantum simulation of materials; please cite
         "P. Giannozzi et al., J. Phys.:Condens. Matter 21 395502 (2009);
          URL http://www.quantum-espresso.org", 
     in publications or presentations arising from this work. More details at
     http://www.quantum-espresso.org/wiki/index.php/Citing_Quantum-ESPRESSO

     Parallel version (MPI), running on     4 processors
     R & G space division:  proc/pool =    4

     Current dimensions of program PWSCF are:
     Max number of different atomic species (ntypx) = 10
     Max number of k-points (npk) =  40000
     Max angular momentum in pseudopotentials (lmaxx) =  3
     Waiting for input...
     Reading input from stdin
               file c.UPF: wavefunction(s)  2P renormalized
               file h.UPF: wavefunction(s)  1S renormalized
               file s.UPF: wavefunction(s)  3P renormalized
               file sb.UPF: wavefunction(s)  5S 5P renormalized

     Subspace diagonalization in iterative solution of the eigenvalue problem:
     a serial algorithm will be used

 
     Parallelization info
     --------------------
     sticks:   dense  smooth     PW     G-vecs:    dense   smooth      PW
     Min        1729    1151    302               125107    68101    9126
     Max        1731    1152    303               125108    68113    9128
     Sum        6921    4605   1209               500431   272423   36507
 

     Title: 
     epxars_2                                                                   


     bravais-lattice index     =            0
     lattice parameter (alat)  =       1.0000  a.u.
     unit-cell volume          =    4337.9887 (a.u.)^3
     number of atoms/cell      =           46
     number of atomic types    =            4
     number of electrons       =       144.00
     number of Kohn-Sham states=           72
     kinetic-energy cutoff     =      60.0000  Ry
     charge density cutoff     =     360.0000  Ry
     convergence threshold     =      1.0E-08
     mixing beta               =       0.7000
     number of iterations used =            8  plain     mixing
     Exchange-correlation      =  NOX  PW   PW86 PBC ( 0 417 4 0)
     EXX-fraction              =        0.00
     nstep                     =           50


     celldm(1)=   1.000000  celldm(2)=   0.000000  celldm(3)=   0.000000
     celldm(4)=   0.000000  celldm(5)=   0.000000  celldm(6)=   0.000000

     crystal axes: (cart. coord. in units of alat)
               a(1) = (  18.039249   0.000000  -0.771251 )  
               a(2) = (   0.000000  13.363275   0.000000 )  
               a(3) = (  -4.398313   0.000000  18.183261 )  

     reciprocal axes: (cart. coord. in units 2 pi/alat)
               b(1) = (  0.056014  0.000000  0.013549 )  
               b(2) = (  0.000000  0.074832  0.000000 )  
               b(3) = (  0.002376  0.000000  0.055570 )  


     PseudoPot. # 1 for  C read from file:
     ./c.UPF
     MD5 check sum: 59d3a4af416b94ce846c69cefa103580
     Pseudo is Projector augmented-wave + core cor, Zval =  4.0
     Generated using "atomic" code by A. Dal Corso  (Quantum ESPRESSO distribution)
     Shape of augmentation charge: BESSEL
     Using radial grid of 1073 points,  4 beta functions with: 
                l(1) =   0
                l(2) =   0
                l(3) =   1
                l(4) =   1
     Q(r) pseudized with 0 coefficients 


     PseudoPot. # 2 for  H read from file:
     ./h.UPF
     MD5 check sum: 465503140a8a8e79e3a70d3488897feb
     Pseudo is Projector augmented-wave, Zval =  1.0
     Generated using "atomic" code by A. Dal Corso  (Quantum ESPRESSO distribution)
     Shape of augmentation charge: PSQ
     Using radial grid of  929 points,  2 beta functions with: 
                l(1) =   0
                l(2) =   0
     Q(r) pseudized with 0 coefficients 


     PseudoPot. # 3 for  S read from file:
     ./s.UPF
     MD5 check sum: f30e8e98a43cb1acb672e04b450f70db
     Pseudo is Projector augmented-wave + core cor, Zval =  6.0
     Generated using "atomic" code by A. Dal Corso  (Quantum ESPRESSO distribution)
     Shape of augmentation charge: PSQ
     Using radial grid of 1151 points,  4 beta functions with: 
                l(1) =   0
                l(2) =   0
                l(3) =   1
                l(4) =   1
     Q(r) pseudized with 0 coefficients 


     PseudoPot. # 4 for Sb read from file:
     ./sb.UPF
     MD5 check sum: eafba98ab4c7605221bb994336090a42
     Pseudo is Projector augmented-wave + core cor, Zval =  5.0
     Generated using "atomic" code by A. Dal Corso  (Quantum ESPRESSO distribution)
     Shape of augmentation charge: PSQ
     Using radial grid of 1243 points,  4 beta functions with: 
                l(1) =   0
                l(2) =   0
                l(3) =   1
                l(4) =   1
     Q(r) pseudized with 0 coefficients 


     atomic species   valence    mass     pseudopotential
        c              4.00    12.01070      C( 1.00)
        h              1.00     1.00794      H( 1.00)
        s              6.00    32.06500      S( 1.00)
        sb             5.00   121.76000     Sb( 1.00)

      2 Sym.Ops. (no inversion)


   Cartesian axes

     site n.     atom                  positions (alat units)
         1           sb  tau(   1) = (  -2.1319330  13.5367775   8.9520069  )
         2           sb  tau(   2) = (  -4.3310895  -0.1735022  18.0436375  )
         3           sb  tau(   3) = (  16.3129037   6.6524572   6.2291847  )
         4           sb  tau(   4) = (  14.1137471   6.7108180  15.3208153  )
         5           c   tau(   5) = (  12.6832120   2.7413474   8.9360669  )
         6           c   tau(   6) = (  14.8823685  10.6219279  -0.1555637  )
         7           c   tau(   7) = (   3.0403411   6.3024209  14.0016859  )
         8           c   tau(   8) = (   5.2394977   7.0608543   4.9100553  )
         9           c   tau(   9) = (   1.8461812   7.0681329  11.7717749  )
        10           c   tau(  10) = (   4.0453378   6.2951424   2.6801443  )
        11           c   tau(  11) = (   0.4672714   5.3347784  10.3263187  )
        12           c   tau(  12) = (   2.6664280   8.0284969   1.2346882  )
        13           c   tau(  13) = (  10.5731819   1.9008356  10.2881476  )
        14           c   tau(  14) = (  12.7723385  11.4624396   1.1965170  )
        15           c   tau(  15) = (   8.6780943   3.6106919  10.9806471  )
        16           c   tau(  16) = (  10.8772508   9.7525833   1.8890165  )
        17           c   tau(  17) = (   8.8929573   6.1520584  10.3142157  )
        18           c   tau(  18) = (  11.0921138   7.2112168   1.2225851  )
        19           c   tau(  19) = (  10.9702935   6.9806002   8.9010260  )
        20           c   tau(  20) = (  13.1694501   6.3826750  -0.1906046  )
        21           c   tau(  21) = (  12.8742506   5.2797587   8.2087093  )
        22           c   tau(  22) = (  10.6750940   8.0835165  17.3003398  )
        23           c   tau(  23) = (   0.3130022   2.8116690  11.1121456  )
        24           c   tau(  24) = (   2.5121587  10.5516062   2.0205151  )
        25           c   tau(  25) = (   1.5432557   2.0309816  13.3183280  )
        26           c   tau(  26) = (   3.7424122  11.3322937   4.2266974  )
        27           c   tau(  27) = (   2.8949437   3.7838403  14.7693333  )
        28           c   tau(  28) = (   5.0941002   9.5794349   5.6777028  )
        29           h   tau(  29) = (  10.4258788  13.2955976  10.8697672  )
        30           h   tau(  30) = (  12.6250354   0.0676776   1.7781367  )
        31           h   tau(  31) = (   7.0424365   2.9626987  12.0417874  )
        32           h   tau(  32) = (   9.2415931  10.4005766   2.9501568  )
        33           h   tau(  33) = (   7.4370763   7.4820767  10.8913159  )
        34           h   tau(  34) = (   9.6362328   5.8811986   1.7996853  )
        35           h   tau(  35) = (  11.1001701   8.9615759   8.3598515  )
        36           h   tau(  36) = (   8.9010135   4.4016994  17.4514820  )
        37           h   tau(  37) = (   1.4116512  13.4408233  13.9503858  )
        38           h   tau(  38) = (   3.6108078  -0.0775480   4.8587552  )
        39           h   tau(  39) = (   3.8298830   3.1703968  16.4950948  )
        40           h   tau(  40) = (   6.0290395  10.1928785   7.4034642  )
        41           h   tau(  41) = (   4.0730027   7.6685276  15.1357520  )
        42           h   tau(  42) = (   6.2721593   5.6947477   6.0441214  )
        43           h   tau(  43) = (   1.9731231   9.0376336  11.1902509  )
        44           h   tau(  44) = (   4.1722796   4.3256416   2.0986203  )
        45           s   tau(  45) = (  -1.1810432   2.4730913   4.9718650  )
        46           s   tau(  46) = (  -3.3801997  10.8901839  14.0634956  )

     number of k points=     2
                       cart. coord. in units 2pi/alat
        k(    1) = (   0.0145975   0.0187080   0.0172799), wk =   1.0000000
        k(    2) = (   0.0134095   0.0187080  -0.0105053), wk =   1.0000000

     Dense  grid:   500431 G-vectors     FFT dimensions: ( 120,  81, 120)

     Smooth grid:   272423 G-vectors     FFT dimensions: (  90,  72,  96)

     Largest allocated arrays     est. size (Mb)     dimensions
        Kohn-Sham Wavefunctions         9.37 Mb     (   8527,   72)
        NL pseudopotentials            35.39 Mb     (   8527,  272)
        Each V/rho on FFT grid          4.45 Mb     ( 291600)
        Each G-vector array             0.95 Mb     ( 125108)
        G-vector shells                 0.95 Mb     ( 125108)
     Largest temporary arrays     est. size (Mb)     dimensions
        Auxiliary wavefunctions        37.47 Mb     (   8527,  288)
        Each subspace H/S matrix        1.27 Mb     ( 288, 288)
        Each <psi_i|beta_j> matrix      0.30 Mb     (    272,   72)
        Arrays for rho mixing          35.60 Mb     ( 291600,   8)

     Check: negative/imaginary core charge=   -0.000002    0.000000

     Initial potential from superposition of free atoms

     starting charge  143.99637, renormalised to  144.00000
     Starting wfc are  136 atomic wfcs
     Checking if some PAW data can be deallocated... 

     total cpu time spent up to now is       37.0 secs

     per-process dynamical memory:   139.2 Mb

     Self-consistent Calculation

     iteration #  1     ecut=    60.00 Ry     beta=0.70
     Davidson diagonalization with overlap
     ethr =  1.00E-02,  avg # of iterations =  8.5

     total cpu time spent up to now is       79.8 secs

     total energy              =   -1990.64208878 Ry
     Harris-Foulkes estimate   =   -1994.82948769 Ry
     estimated scf accuracy    <      15.97366139 Ry

     iteration #  2     ecut=    60.00 Ry     beta=0.70
     Davidson diagonalization with overlap
     ethr =  1.00E-02,  avg # of iterations =  1.0

     total cpu time spent up to now is      112.4 secs

     total energy              =   -1990.66184781 Ry
     Harris-Foulkes estimate   =   -1990.91034666 Ry
     estimated scf accuracy    <       1.22790946 Ry

     iteration #  3     ecut=    60.00 Ry     beta=0.70
     Davidson diagonalization with overlap
     ethr =  8.53E-04,  avg # of iterations =  5.0

     total cpu time spent up to now is      165.8 secs

     total energy              =   -1996.65022805 Ry
     Harris-Foulkes estimate   =   -1996.05147345 Ry
     estimated scf accuracy    <      14.93565949 Ry

     iteration #  4     ecut=    60.00 Ry     beta=0.70
     Davidson diagonalization with overlap
     ethr =  8.53E-04,  avg # of iterations =  1.0

     total cpu time spent up to now is      198.4 secs

     total energy              =   -1993.73449092 Ry
     Harris-Foulkes estimate   =   -1996.65830474 Ry
     estimated scf accuracy    <      15.98931288 Ry

     iteration #  5     ecut=    60.00 Ry     beta=0.70
     Davidson diagonalization with overlap
     ethr =  8.53E-04,  avg # of iterations =  1.0

     total cpu time spent up to now is      231.1 secs

     total energy              =   -1985.79610316 Ry
     Harris-Foulkes estimate   =   -1993.75589385 Ry
     estimated scf accuracy    <      11.50383384 Ry

     iteration #  6     ecut=    60.00 Ry     beta=0.70
     Davidson diagonalization with overlap
     c_bands:  3 eigenvalues not converged
     c_bands:  3 eigenvalues not converged
     ethr =  8.53E-04,  avg # of iterations = 20.0

     total cpu time spent up to now is      301.4 secs

     total energy              =   -2003.12611364 Ry
     Harris-Foulkes estimate   =   -2004.30376490 Ry
     estimated scf accuracy    <      83.21320467 Ry

     iteration #  7     ecut=    60.00 Ry     beta=0.70
     Davidson diagonalization with overlap
     ethr =  8.53E-04,  avg # of iterations =  1.0

     total cpu time spent up to now is      334.2 secs

     total energy              =   -1999.56254232 Ry
     Harris-Foulkes estimate   =   -2003.13004918 Ry
     estimated scf accuracy    <      81.43372153 Ry

     iteration #  8     ecut=    60.00 Ry     beta=0.70
     Davidson diagonalization with overlap
     ethr =  8.53E-04,  avg # of iterations =  1.0

     total cpu time spent up to now is      367.1 secs

     total energy              =   -1997.62539367 Ry
     Harris-Foulkes estimate   =   -1999.57445329 Ry
     estimated scf accuracy    <      76.10995329 Ry

     iteration #  9     ecut=    60.00 Ry     beta=0.70
     Davidson diagonalization with overlap
     ethr =  8.53E-04,  avg # of iterations =  1.0

     total cpu time spent up to now is      400.1 secs

     total energy              =   -1991.58223385 Ry
     Harris-Foulkes estimate   =   -1997.64873382 Ry
     estimated scf accuracy    <      73.12429630 Ry

     iteration # 10     ecut=    60.00 Ry     beta=0.70
     Davidson diagonalization with overlap
     ethr =  8.53E-04,  avg # of iterations = 14.5

     total cpu time spent up to now is      451.2 secs

     total energy              =   -1997.67323112 Ry
     Harris-Foulkes estimate   =   -1995.34163179 Ry
     estimated scf accuracy    <      13.24866002 Ry

     iteration # 11     ecut=    60.00 Ry     beta=0.70
     Davidson diagonalization with overlap
     ethr =  8.53E-04,  avg # of iterations =  3.0

     total cpu time spent up to now is      484.8 secs

     total energy              =   -1994.64409737 Ry
     Harris-Foulkes estimate   =   -1997.71258572 Ry
     estimated scf accuracy    <      17.18706955 Ry

     iteration # 12     ecut=    60.00 Ry     beta=0.70
     Davidson diagonalization with overlap
     ethr =  8.53E-04,  avg # of iterations =  2.5

     total cpu time spent up to now is      518.2 secs

     total energy              =   -1994.00378497 Ry
     Harris-Foulkes estimate   =   -1994.68055197 Ry
     estimated scf accuracy    <      12.69734837 Ry

     iteration # 13     ecut=    60.00 Ry     beta=0.70
     Davidson diagonalization with overlap
     ethr =  8.53E-04,  avg # of iterations = 16.0

     total cpu time spent up to now is      558.0 secs

     total energy              =   -1994.53669973 Ry
     Harris-Foulkes estimate   =   -1994.64766579 Ry
     estimated scf accuracy    <       8.72640204 Ry

     iteration # 14     ecut=    60.00 Ry     beta=0.70
     Davidson diagonalization with overlap
     ethr =  8.53E-04,  avg # of iterations =  1.0

     negative rho (up, down):  0.161E-02 0.000E+00

     total cpu time spent up to now is      591.0 secs

     total energy              =   -2005.31432365 Ry
     Harris-Foulkes estimate   =   -1994.54998814 Ry
     estimated scf accuracy    <       8.50926663 Ry

     iteration # 15     ecut=    60.00 Ry     beta=0.70
     Davidson diagonalization with overlap
     ethr =  8.53E-04,  avg # of iterations = 12.5

     negative rho (up, down):  0.383E-03 0.000E+00

     total cpu time spent up to now is      685.4 secs

     total energy              =   -2116.02466785 Ry
     Harris-Foulkes estimate   =   -2129.17864763 Ry
     estimated scf accuracy    <    1067.03762293 Ry

     iteration # 16     ecut=    60.00 Ry     beta=0.70
     Davidson diagonalization with overlap
     ethr =  8.53E-04,  avg # of iterations =  2.0

     negative rho (up, down):  0.679E-03 0.000E+00

     total cpu time spent up to now is      718.6 secs

     total energy              =   -2119.84122673 Ry
     Harris-Foulkes estimate   =   -2116.06632145 Ry
     estimated scf accuracy    <    1045.02747466 Ry

     iteration # 17     ecut=    60.00 Ry     beta=0.70
     Davidson diagonalization with overlap
     ethr =  8.53E-04,  avg # of iterations =  1.0

     negative rho (up, down):  0.536E-04 0.000E+00

     total cpu time spent up to now is      751.6 secs

     total energy              =   -2085.27080089 Ry
     Harris-Foulkes estimate   =   -2119.85771044 Ry
     estimated scf accuracy    <    1049.75697846 Ry

     iteration # 18     ecut=    60.00 Ry     beta=0.70
     Davidson diagonalization with overlap
     ethr =  8.53E-04,  avg # of iterations =  6.0

     total cpu time spent up to now is      801.6 secs

     total energy              =   -1965.01390464 Ry
     Harris-Foulkes estimate   =   -2087.26775024 Ry
     estimated scf accuracy    <     838.24161587 Ry

     iteration # 19     ecut=    60.00 Ry     beta=0.70
     Davidson diagonalization with overlap
     ethr =  8.53E-04,  avg # of iterations = 14.0

     total cpu time spent up to now is      886.8 secs

     total energy              =   -1980.05080548 Ry
     Harris-Foulkes estimate   =   -2005.34185202 Ry
     estimated scf accuracy    <      74.02177980 Ry

     iteration # 20     ecut=    60.00 Ry     beta=0.70
     Davidson diagonalization with overlap
     ethr =  8.53E-04,  avg # of iterations = 14.0

     total cpu time spent up to now is      953.5 secs

     total energy              =   -1992.52807797 Ry
     Harris-Foulkes estimate   =   -1993.32353567 Ry
     estimated scf accuracy    <       2.12404775 Ry

     iteration # 21     ecut=    60.00 Ry     beta=0.70
     Davidson diagonalization with overlap
     ethr =  8.53E-04,  avg # of iterations =  7.5

     total cpu time spent up to now is      991.4 secs

     total energy              =   -1992.84831810 Ry
     Harris-Foulkes estimate   =   -1992.81359936 Ry
     estimated scf accuracy    <       0.15439271 Ry

     iteration # 22     ecut=    60.00 Ry     beta=0.70
     Davidson diagonalization with overlap
     ethr =  1.07E-04,  avg # of iterations =  6.5

     total cpu time spent up to now is     1030.3 secs

     total energy              =   -1992.79628630 Ry
     Harris-Foulkes estimate   =   -1992.88577816 Ry
     estimated scf accuracy    <       0.23218573 Ry

     iteration # 23     ecut=    60.00 Ry     beta=0.70
     Davidson diagonalization with overlap
     ethr =  1.07E-04,  avg # of iterations =  5.0

     total cpu time spent up to now is     1068.3 secs

     total energy              =   -1992.82618249 Ry
     Harris-Foulkes estimate   =   -1992.82758264 Ry
     estimated scf accuracy    <       0.04226265 Ry

     iteration # 24     ecut=    60.00 Ry     beta=0.70
     Davidson diagonalization with overlap
     ethr =  2.93E-05,  avg # of iterations =  4.0

     total cpu time spent up to now is     1102.7 secs

     total energy              =   -1992.82926679 Ry
     Harris-Foulkes estimate   =   -1992.82918852 Ry
     estimated scf accuracy    <       0.03371861 Ry

     iteration # 25     ecut=    60.00 Ry     beta=0.70
     Davidson diagonalization with overlap
     ethr =  2.34E-05,  avg # of iterations =  1.0

     total cpu time spent up to now is     1135.7 secs

     total energy              =   -1992.82951500 Ry
     Harris-Foulkes estimate   =   -1992.83013819 Ry
     estimated scf accuracy    <       0.03105819 Ry

     iteration # 26     ecut=    60.00 Ry     beta=0.70
     Davidson diagonalization with overlap
     ethr =  2.16E-05,  avg # of iterations =  3.5

     total cpu time spent up to now is     1172.1 secs

     total energy              =   -1992.83285738 Ry
     Harris-Foulkes estimate   =   -1992.83456911 Ry
     estimated scf accuracy    <       0.03515396 Ry

     iteration # 27     ecut=    60.00 Ry     beta=0.70
     Davidson diagonalization with overlap
     ethr =  2.16E-05,  avg # of iterations =  4.0

     total cpu time spent up to now is     1205.7 secs

     total energy              =   -1992.81880471 Ry
     Harris-Foulkes estimate   =   -1992.83408486 Ry
     estimated scf accuracy    <       0.03648329 Ry

     iteration # 28     ecut=    60.00 Ry     beta=0.70
     Davidson diagonalization with overlap
     ethr =  2.16E-05,  avg # of iterations =  6.0

     total cpu time spent up to now is     1241.9 secs

     total energy              =   -1992.82057137 Ry
     Harris-Foulkes estimate   =   -1992.82369961 Ry
     estimated scf accuracy    <       0.00570005 Ry

     iteration # 29     ecut=    60.00 Ry     beta=0.70
     Davidson diagonalization with overlap
     ethr =  3.96E-06,  avg # of iterations =  5.0

     total cpu time spent up to now is     1294.7 secs

     total energy              =   -1992.82974916 Ry
     Harris-Foulkes estimate   =   -1992.83387147 Ry
     estimated scf accuracy    <       0.01432210 Ry

     iteration # 30     ecut=    60.00 Ry     beta=0.70
     Davidson diagonalization with overlap
     ethr =  3.96E-06,  avg # of iterations =  3.0

     total cpu time spent up to now is     1328.1 secs

     total energy              =   -1992.82640608 Ry
     Harris-Foulkes estimate   =   -1992.82990878 Ry
     estimated scf accuracy    <       0.00800181 Ry

     iteration # 31     ecut=    60.00 Ry     beta=0.70
     Davidson diagonalization with overlap
     ethr =  3.96E-06,  avg # of iterations =  5.0

     total cpu time spent up to now is     1376.0 secs

     total energy              =   -1992.83011875 Ry
     Harris-Foulkes estimate   =   -1992.83108838 Ry
     estimated scf accuracy    <       0.00449422 Ry

     iteration # 32     ecut=    60.00 Ry     beta=0.70
     Davidson diagonalization with overlap
     ethr =  3.12E-06,  avg # of iterations =  1.0

     total cpu time spent up to now is     1409.0 secs

     total energy              =   -1992.82914450 Ry
     Harris-Foulkes estimate   =   -1992.83015214 Ry
     estimated scf accuracy    <       0.00298157 Ry

     iteration # 33     ecut=    60.00 Ry     beta=0.70
     Davidson diagonalization with overlap
     ethr =  2.07E-06,  avg # of iterations =  7.0

     total cpu time spent up to now is     1449.4 secs

     total energy              =   -1992.83013050 Ry
     Harris-Foulkes estimate   =   -1992.83022909 Ry
     estimated scf accuracy    <       0.00091195 Ry

     iteration # 34     ecut=    60.00 Ry     beta=0.70
     Davidson diagonalization with overlap
     ethr =  6.33E-07,  avg # of iterations =  1.5

     total cpu time spent up to now is     1482.5 secs

     total energy              =   -1992.82990203 Ry
     Harris-Foulkes estimate   =   -1992.83015708 Ry
     estimated scf accuracy    <       0.00075928 Ry

     iteration # 35     ecut=    60.00 Ry     beta=0.70
     Davidson diagonalization with overlap
     ethr =  5.27E-07,  avg # of iterations =  8.0

     total cpu time spent up to now is     1524.5 secs

     total energy              =   -1992.83017876 Ry
     Harris-Foulkes estimate   =   -1992.83024469 Ry
     estimated scf accuracy    <       0.00051861 Ry

     iteration # 36     ecut=    60.00 Ry     beta=0.70
     Davidson diagonalization with overlap
     ethr =  3.60E-07,  avg # of iterations =  1.0

     total cpu time spent up to now is     1557.5 secs

     total energy              =   -1992.83001413 Ry
     Harris-Foulkes estimate   =   -1992.83018819 Ry
     estimated scf accuracy    <       0.00042746 Ry

     iteration # 37     ecut=    60.00 Ry     beta=0.70
     Davidson diagonalization with overlap
     ethr =  2.97E-07,  avg # of iterations =  6.5

     total cpu time spent up to now is     1599.1 secs

     total energy              =   -1992.83012669 Ry
     Harris-Foulkes estimate   =   -1992.83021990 Ry
     estimated scf accuracy    <       0.00045184 Ry

     iteration # 38     ecut=    60.00 Ry     beta=0.70
     Davidson diagonalization with overlap
     ethr =  2.97E-07,  avg # of iterations =  1.0

     total cpu time spent up to now is     1632.2 secs

     total energy              =   -1992.83008100 Ry
     Harris-Foulkes estimate   =   -1992.83013190 Ry
     estimated scf accuracy    <       0.00030320 Ry

     iteration # 39     ecut=    60.00 Ry     beta=0.70
     Davidson diagonalization with overlap
     ethr =  2.11E-07,  avg # of iterations =  5.0

     total cpu time spent up to now is     1669.7 secs

     total energy              =   -1992.83012624 Ry
     Harris-Foulkes estimate   =   -1992.83013341 Ry
     estimated scf accuracy    <       0.00001540 Ry

     iteration # 40     ecut=    60.00 Ry     beta=0.70
     Davidson diagonalization with overlap
     ethr =  1.07E-08,  avg # of iterations =  5.0

     total cpu time spent up to now is     1723.0 secs

     total energy              =   -1992.83013655 Ry
     Harris-Foulkes estimate   =   -1992.83015438 Ry
     estimated scf accuracy    <       0.00003233 Ry

     iteration # 41     ecut=    60.00 Ry     beta=0.70
     Davidson diagonalization with overlap
     ethr =  1.07E-08,  avg # of iterations =  5.0

     total cpu time spent up to now is     1771.2 secs

     total energy              =   -1992.83013501 Ry
     Harris-Foulkes estimate   =   -1992.83015415 Ry
     estimated scf accuracy    <       0.00003564 Ry

     iteration # 42     ecut=    60.00 Ry     beta=0.70
     Davidson diagonalization with overlap
     ethr =  1.07E-08,  avg # of iterations =  5.0

     total cpu time spent up to now is     1820.3 secs

     total energy              =   -1992.83014918 Ry
     Harris-Foulkes estimate   =   -1992.83015511 Ry
     estimated scf accuracy    <       0.00004068 Ry

     iteration # 43     ecut=    60.00 Ry     beta=0.70
     Davidson diagonalization with overlap
     ethr =  1.07E-08,  avg # of iterations =  1.0

     total cpu time spent up to now is     1853.3 secs

     total energy              =   -1992.83013955 Ry
     Harris-Foulkes estimate   =   -1992.83014927 Ry
     estimated scf accuracy    <       0.00003113 Ry

     iteration # 44     ecut=    60.00 Ry     beta=0.70
     Davidson diagonalization with overlap
     ethr =  1.07E-08,  avg # of iterations = 11.0

     total cpu time spent up to now is     1896.2 secs

     total energy              =   -1992.83014739 Ry
     Harris-Foulkes estimate   =   -1992.83014798 Ry
     estimated scf accuracy    <       0.00000358 Ry

     iteration # 45     ecut=    60.00 Ry     beta=0.70
     Davidson diagonalization with overlap
     ethr =  2.48E-09,  avg # of iterations =  1.0

     total cpu time spent up to now is     1929.2 secs

     total energy              =   -1992.83014657 Ry
     Harris-Foulkes estimate   =   -1992.83014747 Ry
     estimated scf accuracy    <       0.00000269 Ry

     iteration # 46     ecut=    60.00 Ry     beta=0.70
     Davidson diagonalization with overlap
     ethr =  1.86E-09,  avg # of iterations =  5.5

     total cpu time spent up to now is     1963.1 secs

     total energy              =   -1992.83014649 Ry
     Harris-Foulkes estimate   =   -1992.83014673 Ry
     estimated scf accuracy    <       0.00000106 Ry

     iteration # 47     ecut=    60.00 Ry     beta=0.70
     Davidson diagonalization with overlap
     ethr =  7.36E-10,  avg # of iterations =  6.0

     total cpu time spent up to now is     2012.7 secs

     total energy              =   -1992.83014783 Ry
     Harris-Foulkes estimate   =   -1992.83014787 Ry
     estimated scf accuracy    <       0.00000140 Ry

     iteration # 48     ecut=    60.00 Ry     beta=0.70
     Davidson diagonalization with overlap
     ethr =  7.36E-10,  avg # of iterations =  1.0

     total cpu time spent up to now is     2045.7 secs

     total energy              =   -1992.83014757 Ry
     Harris-Foulkes estimate   =   -1992.83014783 Ry
     estimated scf accuracy    <       0.00000136 Ry

     iteration # 49     ecut=    60.00 Ry     beta=0.70
     Davidson diagonalization with overlap
     ethr =  7.36E-10,  avg # of iterations =  1.0

     total cpu time spent up to now is     2078.8 secs

     total energy              =   -1992.83014730 Ry
     Harris-Foulkes estimate   =   -1992.83014758 Ry
     estimated scf accuracy    <       0.00000092 Ry

     iteration # 50     ecut=    60.00 Ry     beta=0.70
     Davidson diagonalization with overlap
     ethr =  6.40E-10,  avg # of iterations =  1.0

     total cpu time spent up to now is     2111.8 secs

     total energy              =   -1992.83014723 Ry
     Harris-Foulkes estimate   =   -1992.83014732 Ry
     estimated scf accuracy    <       0.00000043 Ry

     iteration # 51     ecut=    60.00 Ry     beta=0.70
     Davidson diagonalization with overlap
     ethr =  2.99E-10,  avg # of iterations =  6.0

     total cpu time spent up to now is     2160.6 secs

     total energy              =   -1992.83014765 Ry
     Harris-Foulkes estimate   =   -1992.83014768 Ry
     estimated scf accuracy    <       0.00000057 Ry

     iteration # 52     ecut=    60.00 Ry     beta=0.70
     Davidson diagonalization with overlap
     ethr =  2.99E-10,  avg # of iterations =  1.0

     total cpu time spent up to now is     2193.6 secs

     total energy              =   -1992.83014763 Ry
     Harris-Foulkes estimate   =   -1992.83014766 Ry
     estimated scf accuracy    <       0.00000054 Ry

     iteration # 53     ecut=    60.00 Ry     beta=0.70
     Davidson diagonalization with overlap
     ethr =  2.99E-10,  avg # of iterations =  1.0

     total cpu time spent up to now is     2226.7 secs

     total energy              =   -1992.83014760 Ry
     Harris-Foulkes estimate   =   -1992.83014763 Ry
     estimated scf accuracy    <       0.00000049 Ry

     iteration # 54     ecut=    60.00 Ry     beta=0.70
     Davidson diagonalization with overlap
     ethr =  2.99E-10,  avg # of iterations =  1.0

     total cpu time spent up to now is     2259.7 secs

     total energy              =   -1992.83014757 Ry
     Harris-Foulkes estimate   =   -1992.83014760 Ry
     estimated scf accuracy    <       0.00000043 Ry

     iteration # 55     ecut=    60.00 Ry     beta=0.70
     Davidson diagonalization with overlap
     ethr =  2.99E-10,  avg # of iterations =  1.0

     total cpu time spent up to now is     2292.7 secs

     total energy              =   -1992.83014767 Ry
     Harris-Foulkes estimate   =   -1992.83014757 Ry
     estimated scf accuracy    <       0.00000037 Ry

     iteration # 56     ecut=    60.00 Ry     beta=0.70
     Davidson diagonalization with overlap
     ethr =  2.56E-10,  avg # of iterations =  1.5

     total cpu time spent up to now is     2325.8 secs

     total energy              =   -1992.83014771 Ry
     Harris-Foulkes estimate   =   -1992.83014768 Ry
     estimated scf accuracy    <       0.00000053 Ry

     iteration # 57     ecut=    60.00 Ry     beta=0.70
     Davidson diagonalization with overlap
     ethr =  2.56E-10,  avg # of iterations =  6.5

     total cpu time spent up to now is     2361.1 secs

     total energy              =   -1992.83014772 Ry
     Harris-Foulkes estimate   =   -1992.83014774 Ry
     estimated scf accuracy    <       0.00000076 Ry

     iteration # 58     ecut=    60.00 Ry     beta=0.70
     Davidson diagonalization with overlap
     ethr =  2.56E-10,  avg # of iterations =  1.0

     total cpu time spent up to now is     2394.1 secs

     total energy              =   -1992.83014770 Ry
     Harris-Foulkes estimate   =   -1992.83014772 Ry
     estimated scf accuracy    <       0.00000072 Ry

     iteration # 59     ecut=    60.00 Ry     beta=0.70
     Davidson diagonalization with overlap
     ethr =  2.56E-10,  avg # of iterations =  1.0

     total cpu time spent up to now is     2427.1 secs

     total energy              =   -1992.83014724 Ry
     Harris-Foulkes estimate   =   -1992.83014770 Ry
     estimated scf accuracy    <       0.00000070 Ry

     iteration # 60     ecut=    60.00 Ry     beta=0.70
     Davidson diagonalization with overlap
     ethr =  2.56E-10,  avg # of iterations =  5.0

     total cpu time spent up to now is     2477.7 secs

     total energy              =   -1992.83014742 Ry
     Harris-Foulkes estimate   =   -1992.83014797 Ry
     estimated scf accuracy    <       0.00000185 Ry

     iteration # 61     ecut=    60.00 Ry     beta=0.70
     Davidson diagonalization with overlap
     ethr =  2.56E-10,  avg # of iterations =  2.0

     total cpu time spent up to now is     2510.9 secs

     total energy              =   -1992.83014734 Ry
     Harris-Foulkes estimate   =   -1992.83014744 Ry
     estimated scf accuracy    <       0.00000098 Ry

     iteration # 62     ecut=    60.00 Ry     beta=0.70
     Davidson diagonalization with overlap
     ethr =  2.56E-10,  avg # of iterations =  5.0

     total cpu time spent up to now is     2557.0 secs

     total energy              =   -1992.83014760 Ry
     Harris-Foulkes estimate   =   -1992.83014760 Ry
     estimated scf accuracy    <       0.00000021 Ry

     iteration # 63     ecut=    60.00 Ry     beta=0.70
     Davidson diagonalization with overlap
     ethr =  1.47E-10,  avg # of iterations =  2.0

     total cpu time spent up to now is     2590.3 secs

     total energy              =   -1992.83014755 Ry
     Harris-Foulkes estimate   =   -1992.83014761 Ry
     estimated scf accuracy    <       0.00000023 Ry

     iteration # 64     ecut=    60.00 Ry     beta=0.70
     Davidson diagonalization with overlap
     ethr =  1.47E-10,  avg # of iterations =  1.0

     total cpu time spent up to now is     2623.3 secs

     total energy              =   -1992.83014749 Ry
     Harris-Foulkes estimate   =   -1992.83014756 Ry
     estimated scf accuracy    <       0.00000014 Ry

     iteration # 65     ecut=    60.00 Ry     beta=0.70
     Davidson diagonalization with overlap
     ethr =  9.66E-11,  avg # of iterations =  6.5

     total cpu time spent up to now is     2669.0 secs

     total energy              =   -1992.83014757 Ry
     Harris-Foulkes estimate   =   -1992.83014760 Ry
     estimated scf accuracy    <       0.00000022 Ry

     iteration # 66     ecut=    60.00 Ry     beta=0.70
     Davidson diagonalization with overlap
     ethr =  9.66E-11,  avg # of iterations =  1.0

     total cpu time spent up to now is     2702.0 secs

     total energy              =   -1992.83014751 Ry
     Harris-Foulkes estimate   =   -1992.83014757 Ry
     estimated scf accuracy    <       0.00000016 Ry

     iteration # 67     ecut=    60.00 Ry     beta=0.70
     Davidson diagonalization with overlap
     ethr =  9.66E-11,  avg # of iterations =  8.5

     total cpu time spent up to now is     2738.6 secs

     total energy              =   -1992.83014754 Ry
     Harris-Foulkes estimate   =   -1992.83014753 Ry
     estimated scf accuracy    <       0.00000002 Ry

     iteration # 68     ecut=    60.00 Ry     beta=0.70
     Davidson diagonalization with overlap
     ethr =  1.17E-11,  avg # of iterations =  9.0

     total cpu time spent up to now is     2791.4 secs

     total energy              =   -1992.83014757 Ry
     Harris-Foulkes estimate   =   -1992.83014758 Ry
     estimated scf accuracy    <       0.00000008 Ry

     iteration # 69     ecut=    60.00 Ry     beta=0.70
     Davidson diagonalization with overlap
     ethr =  1.17E-11,  avg # of iterations =  1.5

     total cpu time spent up to now is     2824.5 secs

     total energy              =   -1992.83014757 Ry
     Harris-Foulkes estimate   =   -1992.83014757 Ry
     estimated scf accuracy    <       0.00000007 Ry

     iteration # 70     ecut=    60.00 Ry     beta=0.70
     Davidson diagonalization with overlap
     ethr =  1.17E-11,  avg # of iterations =  5.5

     total cpu time spent up to now is     2858.8 secs

     total energy              =   -1992.83014756 Ry
     Harris-Foulkes estimate   =   -1992.83014757 Ry
     estimated scf accuracy    <       0.00000006 Ry

     iteration # 71     ecut=    60.00 Ry     beta=0.70
     Davidson diagonalization with overlap
     ethr =  1.17E-11,  avg # of iterations =  1.0

     total cpu time spent up to now is     2891.8 secs

     total energy              =   -1992.83014757 Ry
     Harris-Foulkes estimate   =   -1992.83014756 Ry
     estimated scf accuracy    <       0.00000005 Ry

     iteration # 72     ecut=    60.00 Ry     beta=0.70
     Davidson diagonalization with overlap
     ethr =  1.17E-11,  avg # of iterations =  1.0

     total cpu time spent up to now is     2924.8 secs

     total energy              =   -1992.83014757 Ry
     Harris-Foulkes estimate   =   -1992.83014757 Ry
     estimated scf accuracy    <       0.00000005 Ry

     iteration # 73     ecut=    60.00 Ry     beta=0.70
     Davidson diagonalization with overlap
     ethr =  1.17E-11,  avg # of iterations =  1.0

     total cpu time spent up to now is     2957.8 secs

     total energy              =   -1992.83014754 Ry
     Harris-Foulkes estimate   =   -1992.83014757 Ry
     estimated scf accuracy    <       0.00000005 Ry

     iteration # 74     ecut=    60.00 Ry     beta=0.70
     Davidson diagonalization with overlap
     ethr =  1.17E-11,  avg # of iterations =  5.0

     total cpu time spent up to now is     3010.0 secs

     total energy              =   -1992.83014754 Ry
     Harris-Foulkes estimate   =   -1992.83014759 Ry
     estimated scf accuracy    <       0.00000011 Ry

     iteration # 75     ecut=    60.00 Ry     beta=0.70
     Davidson diagonalization with overlap
     ethr =  1.17E-11,  avg # of iterations =  6.0

     total cpu time spent up to now is     3059.9 secs

     total energy              =   -1992.83014757 Ry
     Harris-Foulkes estimate   =   -1992.83014757 Ry
     estimated scf accuracy    <       0.00000001 Ry

     iteration # 76     ecut=    60.00 Ry     beta=0.70
     Davidson diagonalization with overlap
     ethr =  9.13E-12,  avg # of iterations =  1.0

     total cpu time spent up to now is     3092.9 secs

     total energy              =   -1992.83014756 Ry
     Harris-Foulkes estimate   =   -1992.83014757 Ry
     estimated scf accuracy    <       0.00000002 Ry

     iteration # 77     ecut=    60.00 Ry     beta=0.70
     Davidson diagonalization with overlap
     ethr =  9.13E-12,  avg # of iterations =  7.5

     total cpu time spent up to now is     3138.8 secs

     total energy              =   -1992.83014756 Ry
     Harris-Foulkes estimate   =   -1992.83014757 Ry
     estimated scf accuracy    <       0.00000004 Ry

     iteration # 78     ecut=    60.00 Ry     beta=0.70
     Davidson diagonalization with overlap
     ethr =  9.13E-12,  avg # of iterations =  1.0

     total cpu time spent up to now is     3171.8 secs

     total energy              =   -1992.83014755 Ry
     Harris-Foulkes estimate   =   -1992.83014756 Ry
     estimated scf accuracy    <       0.00000002 Ry

     iteration # 79     ecut=    60.00 Ry     beta=0.70
     Davidson diagonalization with overlap
     ethr =  9.13E-12,  avg # of iterations =  5.0

     total cpu time spent up to now is     3220.9 secs

     total energy              =   -1992.83014757 Ry
     Harris-Foulkes estimate   =   -1992.83014757 Ry
     estimated scf accuracy    <       0.00000005 Ry

     iteration # 80     ecut=    60.00 Ry     beta=0.70
     Davidson diagonalization with overlap
     ethr =  9.13E-12,  avg # of iterations =  1.0

     total cpu time spent up to now is     3253.9 secs

     total energy              =   -1992.83014755 Ry
     Harris-Foulkes estimate   =   -1992.83014757 Ry
     estimated scf accuracy    <       0.00000004 Ry

     iteration # 81     ecut=    60.00 Ry     beta=0.70
     Davidson diagonalization with overlap
     ethr =  9.13E-12,  avg # of iterations =  7.5

     total cpu time spent up to now is     3299.4 secs

     End of self-consistent calculation

          k = 0.0146 0.0187 0.0173 ( 34039 PWs)   bands (ev):

   -14.6985 -14.6849 -14.6019 -14.5712 -12.1233 -12.0679 -11.9237 -11.9137
   -11.8446 -11.8380 -11.6210 -11.6005 -10.6094 -10.5747  -8.5482  -8.5406
    -8.3790  -8.3276  -8.1681  -8.1278  -7.8962  -7.8864  -7.0860  -6.7743
    -6.3867  -6.3685  -5.9245  -5.7403  -5.0806  -4.9122  -4.5793  -4.5308
    -4.3960  -4.3891  -4.2118  -4.1749  -4.1444  -4.1117  -3.3710  -3.2356
    -3.1370  -3.1094  -3.0202  -2.9004  -2.8576  -2.6416  -2.5352  -2.3314
    -2.2722  -2.2541  -1.6061  -1.3949  -1.2280  -1.1006  -1.0146  -0.7097
    -0.5543  -0.2583  -0.2407  -0.1423  -0.0134   0.1241   0.1980   0.2292
     0.2518   0.3867   0.4172   0.4784   0.8975   0.9907   1.1515   1.2931

          k = 0.0134 0.0187-0.0105 ( 34060 PWs)   bands (ev):

   -14.7144 -14.6666 -14.5924 -14.5830 -12.1116 -12.0696 -11.9308 -11.9155
   -11.8483 -11.8399 -11.6434 -11.5761 -10.5991 -10.5807  -8.5550  -8.5469
    -8.3645  -8.3296  -8.1528  -8.1385  -7.8984  -7.8896  -7.0732  -6.7921
    -6.3804  -6.3628  -5.8778  -5.8026  -5.0899  -4.9189  -4.5676  -4.5364
    -4.4051  -4.3819  -4.1984  -4.1876  -4.1458  -4.1079  -3.3504  -3.3306
    -3.1679  -3.1009  -2.9585  -2.8222  -2.7579  -2.6652  -2.5112  -2.4101
    -2.3284  -2.2245  -1.5948  -1.3994  -1.2197  -1.0998  -1.0214  -0.7155
    -0.5632  -0.2559  -0.2005  -0.1550  -0.0396   0.1378   0.1850   0.2174
     0.2453   0.3419   0.4103   0.4811   0.9122   0.9999   1.1514   1.2885
 TIME (initial):        0.0
* Atoms contributing density to the main cell
  Number of atoms:   15778
 
 TIME (set up the environment):        0.1
 DOCALC: T F T T
 ESAVE:       0.000000000000       0.000000000000       0.000000000000
* XDM: using PAW all-electron density reconstruction? T
 TIME (promolecular grid):       27.9
 TIME (calculation of b grid):       28.5
 TIME (calculation of volumes and moments):      207.9
 
+ Volume and moments
# All results in atomic units.
# i              V                  Vfree                 M1                  M2                  M3
  1       136.6675974804       174.2312296757         8.9800013365       231.0808311093      6406.6747120760
  2       136.6675974804       174.2312296757         8.9800013365       231.0808311093      6406.6747120760
  3       136.9240369961       174.2312296757         9.1760275077       232.6866231590      6360.8480790006
  4       136.9240369961       174.2312296757         9.1760275077       232.6866231590      6360.8480790008
  5        33.8077719991        39.0349749523         3.9484024067        52.3835496998       986.2746474971
  6        33.8077719991        39.0349749523         3.9484024067        52.3835496998       986.2746474971
  7        32.3030848917        39.0349749523         4.0655795778        53.5377247482       993.7939520978
  8        32.3030848917        39.0349749523         4.0655795778        53.5377247482       993.7939520978
  9        32.8931744264        39.0349749523         4.1067911942        54.3293324710      1002.8764990285
 10        32.8931744264        39.0349749523         4.1067911942        54.3293324710      1002.8764990285
 11        33.8572786288        39.0349749523         3.9238352873        51.9567901192       982.5719749785
 12        33.8572786288        39.0349749523         3.9238352873        51.9567901192       982.5719749785
 13        32.7234071869        39.0349749523         4.1893221595        55.3914705276      1009.6429625639
 14        32.7234071869        39.0349749523         4.1893221595        55.3914705276      1009.6429625639
 15        32.1564065419        39.0349749523         4.1501936454        54.6047971238      1000.5550178751
 16        32.1564065419        39.0349749523         4.1501936454        54.6047971238      1000.5550178751
 17        32.3470718781        39.0349749523         4.0647207855        53.7533981156       998.4052854877
 18        32.3470718781        39.0349749523         4.0647207855        53.7533981156       998.4052854877
 19        32.9555740298        39.0349749523         4.1073422200        54.4215034492      1006.9158706033
 20        32.9555740298        39.0349749523         4.1073422200        54.4215034492      1006.9158706033
 21        33.8455034864        39.0349749523         3.9299784889        52.0886728541       984.3512162224
 22        33.8455034864        39.0349749523         3.9299784889        52.0886728541       984.3512162224
 23        33.8024937154        39.0349749523         3.9424877902        52.1849988122       982.7579664523
 24        33.8024937154        39.0349749523         3.9424877902        52.1849988122       982.7579664523
 25        32.7021590970        39.0349749523         4.1582174334        54.8848004049      1003.7955829034
 26        32.7021590970        39.0349749523         4.1582174334        54.8848004049      1003.7955829034
 27        32.1196677848        39.0349749523         4.0825619958        53.7294901795       992.6842836503
 28        32.1196677848        39.0349749523         4.0825619958        53.7294901795       992.6842836504
 29         7.7131674624        10.4882987305         1.6661918202        15.1781483521       290.3136282409
 30         7.7131674624        10.4882987305         1.6661918202        15.1781483521       290.3136282409
 31         7.4594497212        10.4882987305         1.6301354055        14.6077073526       280.8762946462
 32         7.4594497212        10.4882987305         1.6301354055        14.6077073526       280.8762946462
 33         7.4322925986        10.4882987305         1.5854831242        14.2352933129       280.2447964413
 34         7.4322925986        10.4882987305         1.5854831242        14.2352933129       280.2447964413
 35         7.8025295251        10.4882987305         1.6476254679        15.0689006219       291.6854821194
 36         7.8025295251        10.4882987305         1.6476254679        15.0689006219       291.6854821194
 37         7.6957384838        10.4882987305         1.6649382476        15.1309335784       289.1455666888
 38         7.6957384838        10.4882987305         1.6649382476        15.1309335784       289.1455666888
 39         7.1800023820        10.4882987305         1.5881449717        14.1176832669       278.4654912435
 40         7.1800023820        10.4882987305         1.5881449717        14.1176832669       278.4654912435
 41         7.4852988992        10.4882987305         1.6049339078        14.4117545045       280.6172270213
 42         7.4852988992        10.4882987305         1.6049339078        14.4117545045       280.6172270213
 43         7.7255264791        10.4882987305         1.6506536810        14.9887286677       288.8829533811
 44         7.7255264791        10.4882987305         1.6506536810        14.9887286677       288.8829533811
 45        70.1522674459        77.4908459489         7.5283534008       121.3699440857      2009.0633585053
 46        70.1522674459        77.4908459489         7.5283534008       121.3699440857      2009.0633585054
 
+ Dispersion coefficients
# All results in atomic units.
# i   j              C6                  C8                  C10                   Rc                  Rvdw
  1   1       156.8651633679     12109.7528713058    883919.7751971028         8.6646292496         8.0827042589
  2   1       156.8651633679     12109.7528713059    883919.7751971050         8.6646292496         8.0827042589
  2   2       156.8651633679     12109.7528713059    883919.7751971073         8.6646292496         8.0827042589
  3   1       158.7090223778     12162.8868871556    881459.0203824745         8.6333308076         8.0700440392
  3   2       158.7090223778     12162.8868871557    881459.0203824766         8.6333308076         8.0700440392
  3   3       160.5901659545     12216.7844627467    878998.4379650198         8.6019199731         8.0573383566
  4   1       158.7090223778     12162.8868871557    881459.0203824964         8.6333308076         8.0700440392
  4   2       158.7090223778     12162.8868871558    881459.0203824986         8.6333308076         8.0700440392
  4   3       160.5901659545     12216.7844627469    878998.4379650418         8.6019199731         8.0573383566
  4   4       160.5901659545     12216.7844627470    878998.4379650636         8.6019199731         8.0573383566
  5   1        55.3252398018      3236.5142623886    185911.0382363480         7.6137477087         7.6576226757
  5   2        55.3252398018      3236.5142623886    185911.0382363485         7.6137477087         7.6576226757
  5   3        56.0849653496      3249.4331163459    185023.1031053724         7.5787504206         7.6434662726
  5   4        56.0849653496      3249.4331163459    185023.1031053782         7.5787504206         7.6434662726
  5   5        20.3078212796       808.2730601322     35303.5581386159         6.4582811198         7.1902364404
  6   1        55.3252398018      3236.5142623886    185911.0382363481         7.6137477087         7.6576226757
  6   2        55.3252398018      3236.5142623886    185911.0382363486         7.6137477087         7.6576226757
  6   3        56.0849653496      3249.4331163459    185023.1031053725         7.5787504206         7.6434662726
  6   4        56.0849653496      3249.4331163459    185023.1031053782         7.5787504206         7.6434662726
  6   5        20.3078212796       808.2730601322     35303.5581386158         6.4582811198         7.1902364404
  6   6        20.3078212796       808.2730601322     35303.5581386157         6.4582811198         7.1902364404
  7   1        54.4358303671      3176.4419630466    181760.4313288502         7.6016363023         7.6527236118
  7   2        54.4358303671      3176.4419630466    181760.4313288506         7.6016363023         7.6527236118
  7   3        55.2027799204      3190.1659844550    180943.0809706677         7.5665590170         7.6385348499
  7   4        55.2027799204      3190.1659844550    180943.0809706733         7.5665590170         7.6385348499
  7   5        20.1290897735       798.1855956161     34667.0016413074         6.4431464473         7.1841144654
  7   6        20.1290897735       798.1855956161     34667.0016413074         6.4431464473         7.1841144654
  7   7        19.9798323072       789.3153304045     34087.3297520309         6.4279437466         7.1779649730
  8   1        54.4358303671      3176.4419630466    181760.4313288527         7.6016363023         7.6527236118
  8   2        54.4358303671      3176.4419630466    181760.4313288532         7.6016363023         7.6527236118
  8   3        55.2027799204      3190.1659844550    180943.0809706702         7.5665590170         7.6385348499
  8   4        55.2027799204      3190.1659844551    180943.0809706759         7.5665590170         7.6385348499
  8   5        20.1290897735       798.1855956161     34667.0016413080         6.4431464473         7.1841144654
  8   6        20.1290897735       798.1855956161     34667.0016413079         6.4431464473         7.1841144654
  8   7        19.9798323072       789.3153304045     34087.3297520315         6.4279437466         7.1779649730
  8   8        19.9798323072       789.3153304045     34087.3297520320         6.4279437466         7.1779649730
  9   1        55.2597612559      3229.5439257105    184846.8306671828         7.6050958129         7.6541229838
  9   2        55.2597612559      3229.5439257105    184846.8306671833         7.6050958129         7.6541229838
  9   3        56.0362185813      3243.4248668755    184009.5896480756         7.5700114883         7.6399313745
  9   4        56.0362185813      3243.4248668755    184009.5896480813         7.5700114883         7.6399313745
  9   5        20.4176933990       811.4859561957     35223.1440072576         6.4457821693         7.1851806150
  9   6        20.4176933990       811.4859561957     35223.1440072576         6.4457821693         7.1851806150
  9   7        20.2632602615       802.3545460852     34629.0268311584         6.4305763455         7.1790298592
  9   8        20.2632602615       802.3545460852     34629.0268311589         6.4305763455         7.1790298592
  9   9        20.5510390325       815.6179699041     35180.1153919585         6.4332226376         7.1801002844
 10   1        55.2597612559      3229.5439257105    184846.8306671834         7.6050958129         7.6541229838
 10   2        55.2597612559      3229.5439257105    184846.8306671838         7.6050958129         7.6541229838
 10   3        56.0362185813      3243.4248668755    184009.5896480761         7.5700114883         7.6399313745
 10   4        56.0362185813      3243.4248668755    184009.5896480818         7.5700114883         7.6399313745
 10   5        20.4176933990       811.4859561957     35223.1440072578         6.4457821693         7.1851806150
 10   6        20.4176933990       811.4859561957     35223.1440072577         6.4457821693         7.1851806150
 10   7        20.2632602615       802.3545460852     34629.0268311585         6.4305763455         7.1790298592
 10   8        20.2632602615       802.3545460852     34629.0268311591         6.4305763455         7.1790298592
 10   9        20.5510390325       815.6179699041     35180.1153919586         6.4332226376         7.1801002844
 10  10        20.5510390325       815.6179699041     35180.1153919587         6.4332226376         7.1801002844
 11   1        55.2349116731      3229.1011093734    185522.6338434857         7.6128723152         7.6572685790
 11   2        55.2349116731      3229.1011093734    185522.6338434861         7.6128723152         7.6572685790
 11   3        55.9913478408      3241.8510008797    184630.4909133106         7.5778863222         7.6431167448
 11   4        55.9913478408      3241.8510008798    184630.4909133164         7.5778863222         7.6431167448
 11   5        20.2592115166       805.5574672734     35215.1800035803         6.4581496791         7.1901832727
 11   6        20.2592115166       805.5574672734     35215.1800035802         6.4581496791         7.1901832727
 11   7        20.0780174041       795.3865174768     34575.4172698209         6.4430229587         7.1840645143
 11   8        20.0780174041       795.3865174768     34575.4172698215         6.4430229587         7.1840645143
 11   9        20.3662028226       808.6545056855     35130.5050837585         6.4456511749         7.1851276277
 11  10        20.3662028226       808.6545056855     35130.5050837586         6.4456511749         7.1851276277
 11  11        20.2110180540       802.8621587534     35127.6000538108         6.4580217863         7.1901315400
 12   1        55.2349116731      3229.1011093734    185522.6338434849         7.6128723152         7.6572685790
 12   2        55.2349116731      3229.1011093734    185522.6338434854         7.6128723152         7.6572685790
 12   3        55.9913478408      3241.8510008797    184630.4909133099         7.5778863222         7.6431167448
 12   4        55.9913478408      3241.8510008798    184630.4909133156         7.5778863222         7.6431167448
 12   5        20.2592115166       805.5574672734     35215.1800035802         6.4581496791         7.1901832727
 12   6        20.2592115166       805.5574672734     35215.1800035802         6.4581496791         7.1901832727
 12   7        20.0780174041       795.3865174768     34575.4172698208         6.4430229587         7.1840645143
 12   8        20.0780174041       795.3865174768     34575.4172698214         6.4430229587         7.1840645143
 12   9        20.3662028226       808.6545056855     35130.5050837584         6.4456511749         7.1851276277
 12  10        20.3662028226       808.6545056855     35130.5050837585         6.4456511749         7.1851276277
 12  11        20.2110180540       802.8621587534     35127.6000538107         6.4580217863         7.1901315400
 12  12        20.2110180540       802.8621587534     35127.6000538107         6.4580217863         7.1901315400
 13   1        55.5038498864      3243.2194269891    185266.0862125357         7.6010369467         7.6524811724
 13   2        55.5038498864      3243.2194269891    185266.0862125362         7.6010369467         7.6524811724
 13   3        56.2903227600      3257.5345197147    184441.7722443237         7.5659018429         7.6382690229
 13   4        56.2903227600      3257.5345197148    184441.7722443294         7.5659018429         7.6382690229
 13   5        20.5583324535       816.8571061213     35326.2557499900         6.4393550035         7.1825808264
 13   6        20.5583324535       816.8571061213     35326.2557499899         6.4393550035         7.1825808264
 13   7        20.4123945503       808.0428511524     34745.4322708620         6.4241081365         7.1764134687
 13   8        20.4123945503       808.0428511524     34745.4322708626         6.4241081365         7.1764134687
 13   9        20.7012511372       821.3595399170     35296.7994540655         6.4267636233         7.1774876131
 13  10        20.7012511372       821.3595399170     35296.7994540656         6.4267636233         7.1774876131
 13  11        20.5054986436       813.9674621636     35231.6477164090         6.4392225047         7.1825272306
 13  12        20.5054986436       813.9674621636     35231.6477164089         6.4392225047         7.1825272306
 13  13        20.8558382201       827.2714564250     35418.8794742435         6.4202887166         7.1748685133
 14   1        55.5038498864      3243.2194269891    185266.0862125350         7.6010369467         7.6524811724
 14   2        55.5038498864      3243.2194269891    185266.0862125354         7.6010369467         7.6524811724
 14   3        56.2903227600      3257.5345197147    184441.7722443230         7.5659018429         7.6382690229
 14   4        56.2903227600      3257.5345197148    184441.7722443287         7.5659018429         7.6382690229
 14   5        20.5583324535       816.8571061213     35326.2557499898         6.4393550035         7.1825808264
 14   6        20.5583324535       816.8571061213     35326.2557499898         6.4393550035         7.1825808264
 14   7        20.4123945503       808.0428511524     34745.4322708619         6.4241081365         7.1764134687
 14   8        20.4123945503       808.0428511524     34745.4322708624         6.4241081365         7.1764134687
 14   9        20.7012511372       821.3595399170     35296.7994540653         6.4267636233         7.1774876131
 14  10        20.7012511372       821.3595399170     35296.7994540654         6.4267636233         7.1774876131
 14  11        20.5054986436       813.9674621636     35231.6477164088         6.4392225047         7.1825272306
 14  12        20.5054986436       813.9674621635     35231.6477164087         6.4392225047         7.1825272306
 14  13        20.8558382201       827.2714564250     35418.8794742433         6.4202887166         7.1748685133
 14  14        20.8558382201       827.2714564250     35418.8794742432         6.4202887166         7.1748685133
 15   1        54.7094020272      3191.4726921603    182239.6256613713         7.5971261965         7.6508992739
 15   2        54.7094020272      3191.4726921603    182239.6256613718         7.5971261965         7.6508992739
 15   3        55.4867058246      3205.6280601420    181434.2955684254         7.5619956861         7.6366889825
 15   4        55.4867058246      3205.6280601421    181434.2955684311         7.5619956861         7.6366889825
 15   5        20.2801182278       803.8286237429     34778.2022643264         6.4361863975         7.1812991253
 15   6        20.2801182278       803.8286237429     34778.2022643263         6.4361863975         7.1812991253
 15   7        20.1391996037       795.2678799349     34211.4478722537         6.4209405049         7.1751321617
 15   8        20.1391996037       795.2678799349     34211.4478722542         6.4209405049         7.1751321617
 15   9        20.4238588945       808.3654879089     34753.5586973543         6.4235819214         7.1762006147
 15  10        20.4238588945       808.3654879089     34753.5586973544         6.4235819214         7.1762006147
 15  11        20.2276847949       800.9707000412     34684.6565974752         6.4360618139         7.1812487312
 15  12        20.2276847949       800.9707000412     34684.6565974751         6.4360618139         7.1812487312
 15  13        20.5774184948       814.2246484072     34875.2871663861         6.4170963005         7.1735771810
 15  14        20.5774184948       814.2246484072     34875.2871663860         6.4170963005         7.1735771810
 15  15        20.3030482016       801.3918790983     34340.8179392076         6.4139182694         7.1722916674
 16   1        54.7094020272      3191.4726921603    182239.6256613695         7.5971261965         7.6508992739
 16   2        54.7094020272      3191.4726921603    182239.6256613700         7.5971261965         7.6508992739
 16   3        55.4867058246      3205.6280601420    181434.2955684236         7.5619956861         7.6366889825
 16   4        55.4867058246      3205.6280601421    181434.2955684293         7.5619956861         7.6366889825
 16   5        20.2801182278       803.8286237429     34778.2022643259         6.4361863975         7.1812991253
 16   6        20.2801182278       803.8286237429     34778.2022643258         6.4361863975         7.1812991253
 16   7        20.1391996037       795.2678799349     34211.4478722532         6.4209405049         7.1751321617
 16   8        20.1391996037       795.2678799349     34211.4478722537         6.4209405049         7.1751321617
 16   9        20.4238588945       808.3654879089     34753.5586973539         6.4235819214         7.1762006147
 16  10        20.4238588945       808.3654879089     34753.5586973540         6.4235819214         7.1762006147
 16  11        20.2276847949       800.9707000412     34684.6565974747         6.4360618139         7.1812487312
 16  12        20.2276847949       800.9707000412     34684.6565974747         6.4360618139         7.1812487312
 16  13        20.5774184948       814.2246484072     34875.2871663856         6.4170963005         7.1735771810
 16  14        20.5774184948       814.2246484072     34875.2871663855         6.4170963005         7.1735771810
 16  15        20.3030482016       801.3918790983     34340.8179392071         6.4139182694         7.1722916674
 16  16        20.3030482016       801.3918790983     34340.8179392066         6.4139182694         7.1722916674
 17   1        54.4771082725      3183.4137845433    182356.2759580393         7.6064192205         7.6546583022
 17   2        54.4771082725      3183.4137845433    182356.2759580397         7.6064192205         7.6546583022
 17   3        55.2442335984      3197.1890186441    181538.5700644819         7.5713579493         7.6404760180
 17   4        55.2442335984      3197.1890186441    181538.5700644876         7.5713579493         7.6404760180
 17   5        20.1412478022       800.3547953413     34798.3921719733         6.4482440011         7.1861764259
 17   6        20.1412478022       800.3547953413     34798.3921719732         6.4482440011         7.1861764259
 17   7        19.9913129678       791.4434151286     34216.0843096189         6.4330564431         7.1800330587
 17   8        19.9913129678       791.4434151286     34216.0843096195         6.4330564431         7.1800330587
 17   9        20.2749676621       804.5164124776     34760.0390002779         6.4356969595         7.1811011476
 17  10        20.2749676621       804.5164124776     34760.0390002780         6.4356969595         7.1811011476
 17  11        20.0902053262       797.5521573329     34706.4560970691         6.4481146340         7.1861240969
 17  12        20.0902053262       797.5521573329     34706.4560970690         6.4481146340         7.1861240969
 17  13        20.4239868755       810.2125200990     34876.9510925353         6.4292436696         7.1784907919
 17  14        20.4239868755       810.2125200990     34876.9510925351         6.4292436696         7.1784907919
 17  15        20.1505726807       797.4048606974     34340.7513917319         6.4260684535         7.1772064169
 17  16        20.1505726807       797.4048606974     34340.7513917315         6.4260684535         7.1772064169
 17  17        20.0028125833       793.5741751686     34345.2587762208         6.4381695387         7.1821013059
 18   1        54.4771082725      3183.4137845433    182356.2759580390         7.6064192205         7.6546583022
 18   2        54.4771082725      3183.4137845433    182356.2759580394         7.6064192205         7.6546583022
 18   3        55.2442335984      3197.1890186441    181538.5700644816         7.5713579493         7.6404760180
 18   4        55.2442335984      3197.1890186442    181538.5700644873         7.5713579493         7.6404760180
 18   5        20.1412478022       800.3547953413     34798.3921719732         6.4482440011         7.1861764259
 18   6        20.1412478022       800.3547953413     34798.3921719731         6.4482440011         7.1861764259
 18   7        19.9913129678       791.4434151286     34216.0843096188         6.4330564431         7.1800330587
 18   8        19.9913129678       791.4434151286     34216.0843096194         6.4330564431         7.1800330587
 18   9        20.2749676621       804.5164124776     34760.0390002778         6.4356969595         7.1811011476
 18  10        20.2749676621       804.5164124776     34760.0390002779         6.4356969595         7.1811011476
 18  11        20.0902053262       797.5521573329     34706.4560970690         6.4481146340         7.1861240969
 18  12        20.0902053262       797.5521573329     34706.4560970689         6.4481146340         7.1861240969
 18  13        20.4239868755       810.2125200990     34876.9510925352         6.4292436696         7.1784907919
 18  14        20.4239868755       810.2125200990     34876.9510925350         6.4292436696         7.1784907919
 18  15        20.1505726807       797.4048606974     34340.7513917318         6.4260684535         7.1772064169
 18  16        20.1505726807       797.4048606974     34340.7513917313         6.4260684535         7.1772064169
 18  17        20.0028125833       793.5741751686     34345.2587762207         6.4381695387         7.1821013059
 18  18        20.0028125833       793.5741751686     34345.2587762206         6.4381695387         7.1821013059
 19   1        55.3270312511      3235.1904465702    185300.6237396369         7.6074437793         7.6550727362
 19   2        55.3270312511      3235.1904465702    185300.6237396373         7.6074437793         7.6550727362
 19   3        56.1039712722      3249.0855987261    184462.2324964409         7.5723735472         7.6408868273
 19   4        56.1039712722      3249.0855987262    184462.2324964466         7.5723735472         7.6408868273
 19   5        20.4390143835       812.9669246551     35322.3238877700         6.4486369559         7.1863353762
 19   6        20.4390143835       812.9669246551     35322.3238877699         6.4486369559         7.1863353762
 19   7        20.2837524350       803.7947337574     34725.7981071563         6.4334432799         7.1801895342
 19   8        20.2837524350       803.7947337574     34725.7981071568         6.4334432799         7.1801895342
 19   9        20.5718948442       817.0833845047     35278.5537078163         6.4360907807         7.1812604483
 19  10        20.5718948442       817.0833845047     35278.5537078164         6.4360907807         7.1812604483
 19  11        20.3875391124       810.1336643876     35229.5047551017         6.4485041712         7.1862816647
 19  12        20.3875391124       810.1336643876     35229.5047551016         6.4485041712         7.1862816647
 19  13        20.7220306669       822.8263602926     35395.4113174502         6.4296396168         7.1786509525
 19  14        20.7220306669       822.8263602926     35395.4113174500         6.4296396168         7.1786509525
 19  15        20.4442871365       809.8077721978     34850.5393176445         6.4264570770         7.1773636151
 19  16        20.4442871365       809.8077721978     34850.5393176440         6.4264570770         7.1773636151
 19  17        20.2954857218       805.9597075265     34857.1009404958         6.4385615296         7.1822598662
 19  18        20.2954857218       805.9597075265     34857.1009404957         6.4385615296         7.1822598662
 19  19        20.5927877875       818.5515680713     35377.2199557700         6.4389567852         7.1824197471
 20   1        55.3270312511      3235.1904465702    185300.6237396378         7.6074437793         7.6550727362
 20   2        55.3270312511      3235.1904465702    185300.6237396383         7.6074437793         7.6550727362
 20   3        56.1039712722      3249.0855987261    184462.2324964417         7.5723735472         7.6408868273
 20   4        56.1039712722      3249.0855987262    184462.2324964475         7.5723735472         7.6408868273
 20   5        20.4390143835       812.9669246551     35322.3238877701         6.4486369559         7.1863353762
 20   6        20.4390143835       812.9669246551     35322.3238877700         6.4486369559         7.1863353762
 20   7        20.2837524350       803.7947337574     34725.7981071563         6.4334432799         7.1801895342
 20   8        20.2837524350       803.7947337574     34725.7981071569         6.4334432799         7.1801895342
 20   9        20.5718948442       817.0833845047     35278.5537078163         6.4360907807         7.1812604483
 20  10        20.5718948442       817.0833845047     35278.5537078164         6.4360907807         7.1812604483
 20  11        20.3875391124       810.1336643876     35229.5047551018         6.4485041712         7.1862816647
 20  12        20.3875391124       810.1336643876     35229.5047551017         6.4485041712         7.1862816647
 20  13        20.7220306669       822.8263602926     35395.4113174502         6.4296396168         7.1786509525
 20  14        20.7220306669       822.8263602926     35395.4113174501         6.4296396168         7.1786509525
 20  15        20.4442871365       809.8077721978     34850.5393176446         6.4264570770         7.1773636151
 20  16        20.4442871365       809.8077721978     34850.5393176441         6.4264570770         7.1773636151
 20  17        20.2954857218       805.9597075265     34857.1009404959         6.4385615296         7.1822598662
 20  18        20.2954857218       805.9597075265     34857.1009404958         6.4385615296         7.1822598662
 20  19        20.5927877875       818.5515680713     35377.2199557701         6.4389567852         7.1824197471
 20  20        20.5927877875       818.5515680713     35377.2199557701         6.4389567852         7.1824197471
 21   1        55.2582366097      3231.5306256018    185684.5533297533         7.6137303502         7.6576156541
 21   2        55.2582366097      3231.5306256018    185684.5533297537         7.6137303502         7.6576156541
 21   3        56.0155012365      3244.3299807801    184793.7237761649         7.5787446084         7.6434639216
 21   4        56.0155012365      3244.3299807802    184793.7237761706         7.5787446084         7.6434639216
 21   5        20.2716037274       806.4412448991     35253.7318262149         6.4589165945         7.1904934900
 21   6        20.2716037274       806.4412448991     35253.7318262148         6.4589165945         7.1904934900
 21   7        20.0910165093       796.2890228816     34614.5553082824         6.4437906018         7.1843750259
 21   8        20.0910165093       796.2890228816     34614.5553082830         6.4437906018         7.1843750259
 21   9        20.3793105215       809.5680657727     35170.1750882954         6.4464213444         7.1854391613
 21  10        20.3793105215       809.5680657727     35170.1750882955         6.4464213444         7.1854391613
 21  11        20.2233062966       803.7403970654     35165.9002432832         6.4587871985         7.1904411493
 21  12        20.2233062966       803.7403970654     35165.9002432832         6.4587871985         7.1904411493
 21  13        20.5189414668       814.8968791933     35271.9136159275         6.4399951091         7.1828397491
 21  14        20.5189414668       814.8968791933     35271.9136159273         6.4399951091         7.1828397491
 21  15        20.2410236154       801.8893293679     34724.3943782302         6.4368318649         7.1815602168
 21  16        20.2410236154       801.8893293679     34724.3943782298         6.4368318649         7.1815602168
 21  17        20.1031972389       798.4557010102     34745.7237067917         6.4488834164         7.1864350694
 21  18        20.1031972389       798.4557010102     34745.7237067916         6.4488834164         7.1864350694
 21  19        20.4006433907       811.0479063764     35269.2494652691         6.4492743280         7.1865931932
 21  20        20.4006433907       811.0479063764     35269.2494652692         6.4492743280         7.1865931932
 21  21        20.2356205091       804.6201420757     35204.2802576554         6.4595530521         7.1907509371
 22   1        55.2582366097      3231.5306256019    185684.5533297552         7.6137303502         7.6576156541
 22   2        55.2582366097      3231.5306256019    185684.5533297556         7.6137303502         7.6576156541
 22   3        56.0155012365      3244.3299807802    184793.7237761669         7.5787446084         7.6434639216
 22   4        56.0155012365      3244.3299807802    184793.7237761725         7.5787446084         7.6434639216
 22   5        20.2716037274       806.4412448991     35253.7318262152         6.4589165945         7.1904934900
 22   6        20.2716037274       806.4412448991     35253.7318262151         6.4589165945         7.1904934900
 22   7        20.0910165093       796.2890228816     34614.5553082827         6.4437906018         7.1843750259
 22   8        20.0910165093       796.2890228816     34614.5553082833         6.4437906018         7.1843750259
 22   9        20.3793105215       809.5680657727     35170.1750882957         6.4464213444         7.1854391613
 22  10        20.3793105215       809.5680657727     35170.1750882958         6.4464213444         7.1854391613
 22  11        20.2233062966       803.7403970655     35165.9002432835         6.4587871985         7.1904411493
 22  12        20.2233062966       803.7403970655     35165.9002432835         6.4587871985         7.1904411493
 22  13        20.5189414668       814.8968791933     35271.9136159278         6.4399951091         7.1828397491
 22  14        20.5189414668       814.8968791933     35271.9136159276         6.4399951091         7.1828397491
 22  15        20.2410236154       801.8893293679     34724.3943782305         6.4368318649         7.1815602168
 22  16        20.2410236154       801.8893293679     34724.3943782301         6.4368318649         7.1815602168
 22  17        20.1031972389       798.4557010102     34745.7237067920         6.4488834164         7.1864350694
 22  18        20.1031972389       798.4557010102     34745.7237067919         6.4488834164         7.1864350694
 22  19        20.4006433907       811.0479063764     35269.2494652694         6.4492743280         7.1865931932
 22  20        20.4006433907       811.0479063764     35269.2494652695         6.4492743280         7.1865931932
 22  21        20.2356205091       804.6201420758     35204.2802576557         6.4595530521         7.1907509371
 22  22        20.2356205091       804.6201420758     35204.2802576560         6.4595530521         7.1907509371
 23   1        55.2868032901      3231.7398208033    185542.6873822249         7.6112943013         7.6566302723
 23   2        55.2868032901      3231.7398208034    185542.6873822254         7.6112943013         7.6566302723
 23   3        56.0456437595      3244.5943307327    184653.5941458864         7.5762904852         7.6424712287
 23   4        56.0456437595      3244.5943307327    184653.5941458922         7.5762904852         7.6424712287
 23   5        20.2910165119       806.6771671517     35218.9156139850         6.4557607324         7.1892169437
 23   6        20.2910165119       806.6771671517     35218.9156139849         6.4557607324         7.1892169437
 23   7        20.1119282438       796.5862205621     34582.7593304483         6.4406195993         7.1830923554
 23   8        20.1119282438       796.5862205621     34582.7593304489         6.4406195993         7.1830923554
 23   9        20.4003406519       809.8642442832     35137.5797544042         6.4432505755         7.1841565853
 23  10        20.4003406519       809.8642442832     35137.5797544043         6.4432505755         7.1841565853
 23  11        20.2424993367       803.9681201659     35130.9007053369         6.4556325779         7.1891651052
 23  12        20.2424993367       803.9681201659     35130.9007053368         6.4556325779         7.1891651052
 23  13        20.5406875551       815.2175582679     35239.9431464548         6.4368159495         7.1815537791
 23  14        20.5406875551       815.2175582679     35239.9431464547         6.4368159495         7.1815537791
 23  15        20.2626571744       802.2107828419     34693.1919265447         6.4336519748         7.1802739513
 23  16        20.2626571744       802.2107828419     34693.1919265442         6.4336519748         7.1802739513
 23  17        20.1240865134       798.7534368784     34713.8793484857         6.4457162687         7.1851539582
 23  18        20.1240865134       798.7534368784     34713.8793484856         6.4457162687         7.1851539582
 23  19        20.4216555772       811.3434599992     35236.5840766379         6.4461063064         7.1853117284
 23  20        20.4216555772       811.3434599992     35236.5840766380         6.4461063064         7.1853117284
 23  21        20.2548683211       804.8500863253     35169.3310428490         6.4563987608         7.1894750262
 23  22        20.2548683211       804.8500863253     35169.3310428493         6.4563987608         7.1894750262
 23  23        20.2742347916       805.0837249095     35134.4838363398         6.4532411621         7.1881977776
 24   1        55.2868032901      3231.7398208033    185542.6873822245         7.6112943013         7.6566302723
 24   2        55.2868032901      3231.7398208033    185542.6873822249         7.6112943013         7.6566302723
 24   3        56.0456437595      3244.5943307327    184653.5941458860         7.5762904852         7.6424712287
 24   4        56.0456437595      3244.5943307327    184653.5941458918         7.5762904852         7.6424712287
 24   5        20.2910165119       806.6771671517     35218.9156139850         6.4557607324         7.1892169437
 24   6        20.2910165119       806.6771671517     35218.9156139849         6.4557607324         7.1892169437
 24   7        20.1119282438       796.5862205621     34582.7593304483         6.4406195993         7.1830923554
 24   8        20.1119282438       796.5862205621     34582.7593304488         6.4406195993         7.1830923554
 24   9        20.4003406519       809.8642442831     35137.5797544041         6.4432505755         7.1841565853
 24  10        20.4003406519       809.8642442831     35137.5797544043         6.4432505755         7.1841565853
[...]
  Evdw   =  -1.629761019083E-01 Hartree,  -3.259522038166E-01 Ry
  Evdw6 =  -7.237822027994E-02 Hartree,  -1.447564405599E-01 Ry
  Evdw8 =  -4.960839213157E-02 Hartree,  -9.921678426315E-02 Ry
  Evdw10 =  -4.098948949678E-02 Hartree,  -8.197897899356E-02 Ry
  Evdw9  =   0.000000000000E+00 Hartree,   0.000000000000E+00 Ry
  Fvdw (01) =   2.318754479604E-05  -4.198910933599E-04  -1.083389835355E-04  Hartree/bohr
            =   4.637508959207E-05  -8.397821867199E-04  -2.166779670711E-04  Ry/bohr
  Fvdw (02) =   2.318754479602E-05   4.198910933599E-04  -1.083389835355E-04  Hartree/bohr
            =   4.637508959203E-05   8.397821867199E-04  -2.166779670711E-04  Ry/bohr
  Fvdw (03) =   1.978520998257E-04   7.316418341039E-04  -7.160025834977E-04  Hartree/bohr
            =   3.957041996514E-04   1.463283668208E-03  -1.432005166995E-03  Ry/bohr
  Fvdw (04) =   1.978520998257E-04  -7.316418341039E-04  -7.160025834977E-04  Hartree/bohr
            =   3.957041996514E-04  -1.463283668208E-03  -1.432005166995E-03  Ry/bohr
  Fvdw (05) =   3.605225260000E-04   1.010970264469E-04   2.148078635698E-04  Hartree/bohr
            =   7.210450520000E-04   2.021940528938E-04   4.296157271397E-04  Ry/bohr
  Fvdw (06) =   3.605225260000E-04  -1.010970264469E-04   2.148078635698E-04  Hartree/bohr
            =   7.210450520000E-04  -2.021940528938E-04   4.296157271397E-04  Ry/bohr
  Fvdw (07) =  -1.751976104439E-04   1.252960120233E-04   1.284992328910E-04  Hartree/bohr
            =  -3.503952208878E-04   2.505920240466E-04   2.569984657821E-04  Ry/bohr
  Fvdw (08) =  -1.751976104439E-04  -1.252960120233E-04   1.284992328910E-04  Hartree/bohr
            =  -3.503952208878E-04  -2.505920240466E-04   2.569984657821E-04  Ry/bohr
  Fvdw (09) =  -3.367479477426E-04   3.700906544680E-05  -1.667065588512E-04  Hartree/bohr
            =  -6.734958954852E-04   7.401813089360E-05  -3.334131177025E-04  Ry/bohr
  Fvdw (10) =  -3.367479477426E-04  -3.700906544680E-05  -1.667065588512E-04  Hartree/bohr
            =  -6.734958954851E-04  -7.401813089360E-05  -3.334131177025E-04  Ry/bohr
  Fvdw (11) =  -2.365446852548E-04   1.169258608357E-04  -2.548445825421E-05  Hartree/bohr
            =  -4.730893705096E-04   2.338517216715E-04  -5.096891650842E-05  Ry/bohr
  Fvdw (12) =  -2.365446852548E-04  -1.169258608357E-04  -2.548445825421E-05  Hartree/bohr
            =  -4.730893705097E-04  -2.338517216715E-04  -5.096891650842E-05  Ry/bohr
  Fvdw (13) =   4.727594303735E-04   4.034523546722E-05   2.168014927020E-04  Hartree/bohr
            =   9.455188607470E-04   8.069047093443E-05   4.336029854039E-04  Ry/bohr
  Fvdw (14) =   4.727594303735E-04  -4.034523546721E-05   2.168014927020E-04  Hartree/bohr
            =   9.455188607471E-04  -8.069047093443E-05   4.336029854040E-04  Ry/bohr
  Fvdw (15) =   3.553833830160E-05   1.965498055976E-04   2.853313457761E-04  Hartree/bohr
            =   7.107667660320E-05   3.930996111951E-04   5.706626915522E-04  Ry/bohr
  Fvdw (16) =   3.553833830160E-05  -1.965498055976E-04   2.853313457761E-04  Hartree/bohr
            =   7.107667660320E-05  -3.930996111951E-04   5.706626915522E-04  Ry/bohr
  Fvdw (17) =   7.124128723226E-05   1.548988385029E-04   2.296028477319E-04  Hartree/bohr
            =   1.424825744645E-04   3.097976770058E-04   4.592056954637E-04  Ry/bohr
  Fvdw (18) =   7.124128723226E-05  -1.548988385029E-04   2.296028477319E-04  Hartree/bohr
            =   1.424825744645E-04  -3.097976770058E-04   4.592056954637E-04  Ry/bohr
  Fvdw (19) =   3.705707696050E-04   1.426583402235E-04   2.675105857735E-06  Hartree/bohr
            =   7.411415392100E-04   2.853166804470E-04   5.350211715470E-06  Ry/bohr
  Fvdw (20) =   3.705707696050E-04  -1.426583402235E-04   2.675105857731E-06  Hartree/bohr
            =   7.411415392100E-04  -2.853166804470E-04   5.350211715462E-06  Ry/bohr
  Fvdw (21) =   2.641950949618E-04   1.472658278765E-04   1.121155093691E-04  Hartree/bohr
            =   5.283901899237E-04   2.945316557530E-04   2.242310187382E-04  Ry/bohr
  Fvdw (22) =   2.641950949618E-04  -1.472658278765E-04   1.121155093691E-04  Hartree/bohr
            =   5.283901899237E-04  -2.945316557530E-04   2.242310187382E-04  Ry/bohr
  Fvdw (23) =  -3.643127489922E-04   1.106405024938E-04   2.293816377567E-05  Hartree/bohr
            =  -7.286254979845E-04   2.212810049876E-04   4.587632755135E-05  Ry/bohr
  Fvdw (24) =  -3.643127489922E-04  -1.106405024938E-04   2.293816377567E-05  Hartree/bohr
            =  -7.286254979845E-04  -2.212810049876E-04   4.587632755135E-05  Ry/bohr
  Fvdw (25) =  -4.939821669821E-04   7.623711410791E-05  -5.427672135295E-05  Hartree/bohr
            =  -9.879643339642E-04   1.524742282158E-04  -1.085534427059E-04  Ry/bohr
  Fvdw (26) =  -4.939821669821E-04  -7.623711410791E-05  -5.427672135295E-05  Hartree/bohr
            =  -9.879643339642E-04  -1.524742282158E-04  -1.085534427059E-04  Ry/bohr
  Fvdw (27) =  -2.103195641973E-04   1.964567678956E-04   7.916075375451E-05  Hartree/bohr
            =  -4.206391283947E-04   3.929135357912E-04   1.583215075090E-04  Ry/bohr
  Fvdw (28) =  -2.103195641973E-04  -1.964567678956E-04   7.916075375451E-05  Hartree/bohr
            =  -4.206391283947E-04  -3.929135357912E-04   1.583215075090E-04  Ry/bohr
  Fvdw (29) =   1.284488843468E-04  -3.105538078720E-05   7.256914216178E-05  Hartree/bohr
            =   2.568977686936E-04  -6.211076157439E-05   1.451382843236E-04  Ry/bohr
  Fvdw (30) =   1.284488843468E-04   3.105538078720E-05   7.256914216178E-05  Hartree/bohr
            =   2.568977686936E-04   6.211076157439E-05   1.451382843236E-04  Ry/bohr
  Fvdw (31) =   2.858684859354E-06   9.913133550419E-05   2.942141246376E-05  Hartree/bohr
            =   5.717369718707E-06   1.982626710084E-04   5.884282492753E-05  Ry/bohr
  Fvdw (32) =   2.858684859352E-06  -9.913133550418E-05   2.942141246376E-05  Hartree/bohr
            =   5.717369718704E-06  -1.982626710084E-04   5.884282492753E-05  Ry/bohr
  Fvdw (33) =   3.799853209575E-05  -4.712451237728E-05   6.614518927260E-05  Hartree/bohr
            =   7.599706419150E-05  -9.424902475455E-05   1.322903785452E-04  Ry/bohr
  Fvdw (34) =   3.799853209575E-05   4.712451237728E-05   6.614518927260E-05  Hartree/bohr
            =   7.599706419150E-05   9.424902475456E-05   1.322903785452E-04  Ry/bohr
  Fvdw (35) =   1.012353863952E-04  -1.475120316636E-05  -6.541010232206E-06  Hartree/bohr
            =   2.024707727905E-04  -2.950240633272E-05  -1.308202046441E-05  Ry/bohr
  Fvdw (36) =   1.012353863952E-04   1.475120316636E-05  -6.541010232208E-06  Hartree/bohr
            =   2.024707727905E-04   2.950240633272E-05  -1.308202046442E-05  Ry/bohr
  Fvdw (37) =  -1.441060759227E-04  -1.651745148119E-05   9.489918326598E-06  Hartree/bohr
            =  -2.882121518453E-04  -3.303490296238E-05   1.897983665320E-05  Ry/bohr
  Fvdw (38) =  -1.441060759227E-04   1.651745148119E-05   9.489918326598E-06  Hartree/bohr
            =  -2.882121518454E-04   3.303490296239E-05   1.897983665320E-05  Ry/bohr
  Fvdw (39) =  -4.043318603877E-05   7.028679500534E-05   8.093333645113E-07  Hartree/bohr
            =  -8.086637207754E-05   1.405735900107E-04   1.618666729023E-06  Ry/bohr
  Fvdw (40) =  -4.043318603877E-05  -7.028679500534E-05   8.093333645122E-07  Hartree/bohr
            =  -8.086637207755E-05  -1.405735900107E-04   1.618666729024E-06  Ry/bohr
  Fvdw (41) =  -4.914018720473E-05  -1.685095006191E-05   4.020348366465E-05  Hartree/bohr
            =  -9.828037440946E-05  -3.370190012383E-05   8.040696732930E-05  Ry/bohr
  Fvdw (42) =  -4.914018720473E-05   1.685095006191E-05   4.020348366465E-05  Hartree/bohr
            =  -9.828037440946E-05   3.370190012383E-05   8.040696732930E-05  Ry/bohr
  Fvdw (43) =  -1.139194188047E-04  -3.351993450254E-05  -4.723273458577E-05  Hartree/bohr
            =  -2.278388376095E-04  -6.703986900508E-05  -9.446546917153E-05  Ry/bohr
  Fvdw (44) =  -1.139194188047E-04   3.351993450254E-05  -4.723273458577E-05  Hartree/bohr
            =  -2.278388376095E-04   6.703986900508E-05  -9.446546917153E-05  Ry/bohr
  Fvdw (45) =   9.829501279078E-05   2.191034326604E-04  -3.859877443722E-04  Hartree/bohr
            =   1.965900255816E-04   4.382068653209E-04  -7.719754887444E-04  Ry/bohr
  Fvdw (46) =   9.829501279079E-05  -2.191034326604E-04  -3.859877443722E-04  Hartree/bohr
            =   1.965900255816E-04  -4.382068653209E-04  -7.719754887443E-04  Ry/bohr
  sigma_vdw (Hy/bohr**3) =  -3.970224165041E-05   5.795298174645E-21   8.012559257066E-07  
                             5.795298174645E-21  -3.680664148007E-05  -1.565199129648E-20  
                             8.012559257066E-07  -1.565199129648E-20  -4.133877027638E-05  
  sigma_vdw (Ry/bohr**3) =  -7.940448330081E-05   1.159059634929E-20   1.602511851413E-06  
                             1.159059634929E-20  -7.361328296013E-05  -3.130398259296E-20  
                             1.602511851413E-06  -3.130398259296E-20  -8.267754055276E-05  
  sigma_vdw (GPa) =  -1.168080080528E+00   1.705035302070E-16   2.357375924676E-02  
                      1.705035302070E-16  -1.082888596634E+00  -4.604974050334E-16  
                      2.357375924676E-02  -4.604974050334E-16  -1.216228406914E+00  
 
 TIME (final):      417.0

!    total energy              =   -1993.15609976 Ry
     Harris-Foulkes estimate   =   -1993.15609977 Ry
     estimated scf accuracy    <          7.3E-09 Ry

     total all-electron energy =    -55305.835799 Ry

     The total energy is the sum of the following terms:

     one-electron contribution =    -286.41630000 Ry
     hartree contribution      =     197.59642233 Ry
     xc contribution           =    -164.68043521 Ry
     ewald contribution        =    -161.12230007 Ry
     Dispersion XDM Correction =      -0.32595220 Ry
     Uncorrected (XDM) energy  =   -1992.83014756 Ry
     one-center paw contrib.   =   -1578.20753460 Ry

     convergence has been achieved in  79 iterations

     Forces acting on atoms (Ry/au):

     atom    1 type  4   force =    -0.00020390   -0.00022012   -0.00010028
     atom    2 type  4   force =    -0.00020390    0.00022012   -0.00010028
     atom    3 type  4   force =    -0.00001265    0.00019654    0.00003943
     atom    4 type  4   force =    -0.00001265   -0.00019654    0.00003943
     atom    5 type  1   force =     0.00016937   -0.00033240   -0.00038556
     atom    6 type  1   force =     0.00016937    0.00033240   -0.00038556
     atom    7 type  1   force =    -0.00025451    0.00054158    0.00066897
     atom    8 type  1   force =    -0.00025451   -0.00054158    0.00066897
     atom    9 type  1   force =    -0.00047335   -0.00009894   -0.00066234
     atom   10 type  1   force =    -0.00047335    0.00009894   -0.00066234
     atom   11 type  1   force =     0.00003554   -0.00011978    0.00002366
     atom   12 type  1   force =     0.00003554    0.00011978    0.00002366
     atom   13 type  1   force =     0.00021923    0.00012635    0.00005209
     atom   14 type  1   force =     0.00021923   -0.00012635    0.00005209
     atom   15 type  1   force =    -0.00014120    0.00041150    0.00001362
     atom   16 type  1   force =    -0.00014120   -0.00041150    0.00001362
     atom   17 type  1   force =     0.00080530    0.00007029    0.00025295
     atom   18 type  1   force =     0.00080530   -0.00007029    0.00025295
     atom   19 type  1   force =     0.00002603   -0.00044347   -0.00004934
     atom   20 type  1   force =     0.00002603    0.00044347   -0.00004934
     atom   21 type  1   force =     0.00039041   -0.00028050    0.00008089
     atom   22 type  1   force =     0.00039041    0.00028050    0.00008089
     atom   23 type  1   force =     0.00003865   -0.00037835   -0.00042999
     atom   24 type  1   force =     0.00003865    0.00037835   -0.00042999
     atom   25 type  1   force =     0.00015638    0.00055149    0.00045874
     atom   26 type  1   force =     0.00015638   -0.00055149    0.00045874
     atom   27 type  1   force =    -0.00072257    0.00013341   -0.00052071
     atom   28 type  1   force =    -0.00072257   -0.00013341   -0.00052071
     atom   29 type  2   force =    -0.00010243    0.00054896   -0.00020121
     atom   30 type  2   force =    -0.00010243   -0.00054896   -0.00020121
     atom   31 type  2   force =    -0.00006250    0.00047876    0.00005589
     atom   32 type  2   force =    -0.00006250   -0.00047876    0.00005589
     atom   33 type  2   force =    -0.00025014   -0.00007843   -0.00008434
     atom   34 type  2   force =    -0.00025014    0.00007843   -0.00008434
     atom   35 type  2   force =    -0.00035285    0.00008523    0.00040207
     atom   36 type  2   force =    -0.00035285   -0.00008523    0.00040207
     atom   37 type  2   force =     0.00012945    0.00014670   -0.00001881
     atom   38 type  2   force =     0.00012945   -0.00014670   -0.00001881
     atom   39 type  2   force =     0.00013359    0.00031610   -0.00003609
     atom   40 type  2   force =     0.00013359   -0.00031610   -0.00003609
     atom   41 type  2   force =     0.00031895   -0.00033925    0.00010092
     atom   42 type  2   force =     0.00031895    0.00033925    0.00010092
     atom   43 type  2   force =     0.00012583    0.00015750    0.00023388
     atom   44 type  2   force =     0.00012583   -0.00015750    0.00023388
     atom   45 type  3   force =     0.00002737    0.00018457    0.00010554
     atom   46 type  3   force =     0.00002737   -0.00018457    0.00010554

     Total force =     0.003605     Total SCF correction =     0.000151

     Total XDM Dispersion Force =     0.005114

     XDM Dispersion forces acting on atoms:
     atom    1 type  4   force =     0.00004638   -0.00083978   -0.00021668
     atom    2 type  4   force =     0.00004638    0.00083978   -0.00021668
     atom    3 type  4   force =     0.00039570    0.00146328   -0.00143201
     atom    4 type  4   force =     0.00039570   -0.00146328   -0.00143201
     atom    5 type  1   force =     0.00072105    0.00020219    0.00042962
     atom    6 type  1   force =     0.00072105   -0.00020219    0.00042962
     atom    7 type  1   force =    -0.00035040    0.00025059    0.00025700
     atom    8 type  1   force =    -0.00035040   -0.00025059    0.00025700
     atom    9 type  1   force =    -0.00067350    0.00007402   -0.00033341
     atom   10 type  1   force =    -0.00067350   -0.00007402   -0.00033341
     atom   11 type  1   force =    -0.00047309    0.00023385   -0.00005097
     atom   12 type  1   force =    -0.00047309   -0.00023385   -0.00005097
     atom   13 type  1   force =     0.00094552    0.00008069    0.00043360
     atom   14 type  1   force =     0.00094552   -0.00008069    0.00043360
     atom   15 type  1   force =     0.00007108    0.00039310    0.00057066
     atom   16 type  1   force =     0.00007108   -0.00039310    0.00057066
     atom   17 type  1   force =     0.00014248    0.00030980    0.00045921
     atom   18 type  1   force =     0.00014248   -0.00030980    0.00045921
     atom   19 type  1   force =     0.00074114    0.00028532    0.00000535
     atom   20 type  1   force =     0.00074114   -0.00028532    0.00000535
     atom   21 type  1   force =     0.00052839    0.00029453    0.00022423
     atom   22 type  1   force =     0.00052839   -0.00029453    0.00022423
     atom   23 type  1   force =    -0.00072863    0.00022128    0.00004588
     atom   24 type  1   force =    -0.00072863   -0.00022128    0.00004588
     atom   25 type  1   force =    -0.00098796    0.00015247   -0.00010855
     atom   26 type  1   force =    -0.00098796   -0.00015247   -0.00010855
     atom   27 type  1   force =    -0.00042064    0.00039291    0.00015832
     atom   28 type  1   force =    -0.00042064   -0.00039291    0.00015832
     atom   29 type  2   force =     0.00025690   -0.00006211    0.00014514
     atom   30 type  2   force =     0.00025690    0.00006211    0.00014514
     atom   31 type  2   force =     0.00000572    0.00019826    0.00005884
     atom   32 type  2   force =     0.00000572   -0.00019826    0.00005884
     atom   33 type  2   force =     0.00007600   -0.00009425    0.00013229
     atom   34 type  2   force =     0.00007600    0.00009425    0.00013229
     atom   35 type  2   force =     0.00020247   -0.00002950   -0.00001308
     atom   36 type  2   force =     0.00020247    0.00002950   -0.00001308
     atom   37 type  2   force =    -0.00028821   -0.00003303    0.00001898
     atom   38 type  2   force =    -0.00028821    0.00003303    0.00001898
     atom   39 type  2   force =    -0.00008087    0.00014057    0.00000162
     atom   40 type  2   force =    -0.00008087   -0.00014057    0.00000162
     atom   41 type  2   force =    -0.00009828   -0.00003370    0.00008041
     atom   42 type  2   force =    -0.00009828    0.00003370    0.00008041
     atom   43 type  2   force =    -0.00022784   -0.00006704   -0.00009447
     atom   44 type  2   force =    -0.00022784    0.00006704   -0.00009447
     atom   45 type  3   force =     0.00019659    0.00043821   -0.00077198
     atom   46 type  3   force =     0.00019659   -0.00043821   -0.00077198


     entering subroutine stress ...

          total   stress  (Ry/bohr**3)                   (kbar)     P=    0.16
   0.00000070   0.00000000  -0.00000076          0.10      0.00     -0.11
   0.00000000   0.00000061   0.00000000          0.00      0.09      0.00
  -0.00000076   0.00000000   0.00000202         -0.11      0.00      0.30


     Writing output data file epxars_2.save
 
     init_run     :     69.82s CPU     70.02s WALL (       2 calls)
     electrons    :   6765.25s CPU   6794.24s WALL (       2 calls)
     forces       :     50.54s CPU     50.62s WALL (       2 calls)
     stress       :    100.99s CPU    101.11s WALL (       2 calls)

     Called by init_run:
     wfcinit      :     23.23s CPU     23.34s WALL (       2 calls)
     potinit      :     18.84s CPU     18.88s WALL (       2 calls)

     Called by electrons:
     c_bands      :   3124.11s CPU   3147.34s WALL (     160 calls)
     sum_band     :   2271.97s CPU   2276.19s WALL (     160 calls)
     v_of_rho     :    202.95s CPU    203.12s WALL (     162 calls)
     newd         :    529.07s CPU    529.32s WALL (     162 calls)
     mix_rho      :    112.10s CPU    112.17s WALL (     160 calls)

     Called by c_bands:
     init_us_2    :     14.08s CPU     14.11s WALL (     652 calls)
     cegterg      :   3090.31s CPU   3109.45s WALL (     320 calls)

     Called by *egterg:
     h_psi        :   2672.51s CPU   2674.21s WALL (    1704 calls)
     s_psi        :    122.09s CPU    122.13s WALL (    1704 calls)
     g_psi        :      6.70s CPU      6.68s WALL (    1380 calls)
     cdiaghg      :     30.85s CPU     30.86s WALL (    1700 calls)

     Called by h_psi:
     add_vuspsi   :    122.57s CPU    122.61s WALL (    1704 calls)

     General routines
     calbec       :    173.56s CPU    173.66s WALL (    2032 calls)
     fft          :    202.22s CPU    202.43s WALL (    4748 calls)
     ffts         :     13.67s CPU     13.70s WALL (     644 calls)
     fftw         :   3693.18s CPU   3691.72s WALL (  229578 calls)
     interpolate  :     44.35s CPU     44.39s WALL (     644 calls)
     davcio       :      0.02s CPU      6.27s WALL (     972 calls)
 
     Parallel routines
     fft_scatter  :    346.64s CPU    352.71s WALL (  234970 calls)
 
     PAW routines
     PAW_pot      :     83.84s CPU     83.86s WALL (     162 calls)
     PAW_ddot     :     62.29s CPU     62.28s WALL (    6632 calls)
     PAW_symme    :      0.02s CPU      0.02s WALL (     322 calls)
 
     PWSCF        :     1h56m CPU        1h56m WALL

 
   This run was terminated on:  23: 2:13  15Oct2012            

=------------------------------------------------------------------------------=
   JOB DONE.
=------------------------------------------------------------------------------=
