
     Program PWSCF v.4.3.2      starts on 15Oct2012 at 19:56: 2 

     This program is part of the open-source Quantum ESPRESSO suite
     for quantum simulation of materials; please cite
         "P. Giannozzi et al., J. Phys.:Condens. Matter 21 395502 (2009);
          URL http://www.quantum-espresso.org", 
     in publications or presentations arising from this work. More details at
     http://www.quantum-espresso.org/wiki/index.php/Citing_Quantum-ESPRESSO

     Parallel version (MPI), running on     4 processors
     R & G space division:  proc/pool =    4

     Current dimensions of program PWSCF are:
     Max number of different atomic species (ntypx) = 10
     Max number of k-points (npk) =  40000
     Max angular momentum in pseudopotentials (lmaxx) =  3
     Waiting for input...
     Reading input from stdin
               file c.UPF: wavefunction(s)  2P renormalized
               file h.UPF: wavefunction(s)  1S renormalized
               file o.UPF: wavefunction(s)  2P renormalized
               file sb.UPF: wavefunction(s)  5S 5P renormalized

     Subspace diagonalization in iterative solution of the eigenvalue problem:
     a serial algorithm will be used

 
     Parallelization info
     --------------------
     sticks:   dense  smooth     PW     G-vecs:    dense   smooth      PW
     Min        1765    1178    308               108854    59252    7968
     Max        1767    1179    309               108855    59258    7971
     Sum        7063    4715   1233               435419   237021   31875
 

     Title: 
     epxars_2                                                                   


     bravais-lattice index     =            0
     lattice parameter (alat)  =       1.0000  a.u.
     unit-cell volume          =    3775.0257 (a.u.)^3
     number of atoms/cell      =           46
     number of atomic types    =            4
     number of electrons       =       144.00
     number of Kohn-Sham states=           72
     kinetic-energy cutoff     =      60.0000  Ry
     charge density cutoff     =     360.0000  Ry
     convergence threshold     =      1.0E-08
     mixing beta               =       0.7000
     number of iterations used =            8  plain     mixing
     Exchange-correlation      =  NOX  PW   PW86 PBC ( 0 417 4 0)
     EXX-fraction              =        0.00
     nstep                     =           50


     celldm(1)=   1.000000  celldm(2)=   0.000000  celldm(3)=   0.000000
     celldm(4)=   0.000000  celldm(5)=   0.000000  celldm(6)=   0.000000

     crystal axes: (cart. coord. in units of alat)
               a(1) = (  19.948189   0.000000   0.424325 )  
               a(2) = (   0.000000  12.359239   0.000000 )  
               a(3) = (  -3.795115   0.000000  15.231019 )  

     reciprocal axes: (cart. coord. in units 2 pi/alat)
               b(1) = (  0.049866  0.000000  0.012425 )  
               b(2) = (  0.000000  0.080911  0.000000 )  
               b(3) = ( -0.001389  0.000000  0.065309 )  


     PseudoPot. # 1 for  C read from file:
     ./c.UPF
     MD5 check sum: 59d3a4af416b94ce846c69cefa103580
     Pseudo is Projector augmented-wave + core cor, Zval =  4.0
     Generated using "atomic" code by A. Dal Corso  (Quantum ESPRESSO distribution)
     Shape of augmentation charge: BESSEL
     Using radial grid of 1073 points,  4 beta functions with: 
                l(1) =   0
                l(2) =   0
                l(3) =   1
                l(4) =   1
     Q(r) pseudized with 0 coefficients 


     PseudoPot. # 2 for  H read from file:
     ./h.UPF
     MD5 check sum: 465503140a8a8e79e3a70d3488897feb
     Pseudo is Projector augmented-wave, Zval =  1.0
     Generated using "atomic" code by A. Dal Corso  (Quantum ESPRESSO distribution)
     Shape of augmentation charge: PSQ
     Using radial grid of  929 points,  2 beta functions with: 
                l(1) =   0
                l(2) =   0
     Q(r) pseudized with 0 coefficients 


     PseudoPot. # 3 for  O read from file:
     ./o.UPF
     MD5 check sum: 7b405463629fa2aaa019ec68516902cf
     Pseudo is Projector augmented-wave + core cor, Zval =  6.0
     Generated using "atomic" code by A. Dal Corso  (Quantum ESPRESSO distribution)
     Shape of augmentation charge: BESSEL
     Using radial grid of 1095 points,  4 beta functions with: 
                l(1) =   0
                l(2) =   0
                l(3) =   1
                l(4) =   1
     Q(r) pseudized with 0 coefficients 


     PseudoPot. # 4 for Sb read from file:
     ./sb.UPF
     MD5 check sum: eafba98ab4c7605221bb994336090a42
     Pseudo is Projector augmented-wave + core cor, Zval =  5.0
     Generated using "atomic" code by A. Dal Corso  (Quantum ESPRESSO distribution)
     Shape of augmentation charge: PSQ
     Using radial grid of 1243 points,  4 beta functions with: 
                l(1) =   0
                l(2) =   0
                l(3) =   1
                l(4) =   1
     Q(r) pseudized with 0 coefficients 


     atomic species   valence    mass     pseudopotential
        c              4.00    12.01070      C( 1.00)
        h              1.00     1.00794      H( 1.00)
        o              6.00    15.99940      O( 1.00)
        sb             5.00   121.76000     Sb( 1.00)

      2 Sym.Ops. (no inversion)


   Cartesian axes

     site n.     atom                  positions (alat units)
         1           sb  tau(   1) = (  -2.0191537  11.7469379   8.1206801  )
         2           sb  tau(   2) = (  -3.9167112   0.6123006  15.7361896  )
         3           sb  tau(   3) = (  18.5299217   5.4435946   5.9105006  )
         4           sb  tau(   4) = (  16.6323642   6.9156440  13.5260102  )
         5           c   tau(   5) = (  14.6797578   1.9630241   8.6866816  )
         6           c   tau(   6) = (  16.5773153  10.3962145   1.0711721  )
         7           c   tau(   7) = (   4.2133152   5.4035385  11.8629183  )
         8           c   tau(   8) = (   6.1108726   6.9557001   4.2474088  )
         9           c   tau(   9) = (   2.6641157   6.1605736   9.8673603  )
        10           c   tau(  10) = (   4.5616732   6.1986650   2.2518508  )
        11           c   tau(  11) = (   0.9315224   4.4663885   8.8039919  )
        12           c   tau(  12) = (   2.8290799   7.8928501   1.1884824  )
        13           c   tau(  13) = (  12.3989243   1.1587767   9.7594109  )
        14           c   tau(  14) = (  14.2964818  11.2004618   2.1439014  )
        15           c   tau(  15) = (  10.3520696   2.8208572   9.8984461  )
        16           c   tau(  16) = (  12.2496271   9.5383814   2.2829366  )
        17           c   tau(  17) = (  10.5976740   5.2919385   9.0056598  )
        18           c   tau(  18) = (  12.4952315   7.0673000   1.3901503  )
        19           c   tau(  19) = (  12.8683425   6.0884214   7.9226380  )
        20           c   tau(  20) = (  14.7659000   6.2708171   0.3071285  )
        21           c   tau(  21) = (  14.9167256   4.4198802   7.7496673  )
        22           c   tau(  22) = (  13.0191681   7.9393584  15.3651768  )
        23           c   tau(  23) = (   0.7459148   2.0136005   9.7650902  )
        24           c   tau(  24) = (   2.6434723  10.3456381   2.1495807  )
        25           c   tau(  25) = (   2.2934751   1.2491969  11.7710330  )
        26           c   tau(  26) = (   4.1910326  11.1100417   4.1555235  )
        27           c   tau(  27) = (   4.0378227   2.9431615  12.8062992  )
        28           c   tau(  28) = (   5.9353802   9.4160770   5.1907897  )
        29           h   tau(  29) = (  12.2251438  11.6205816  10.5355236  )
        30           h   tau(  30) = (  14.1227012   0.7386569   2.9200141  )
        31           h   tau(  31) = (   8.5759690   2.2091380  10.7295262  )
        32           h   tau(  32) = (  10.4735265  10.1501005   3.1140167  )
        33           h   tau(  33) = (   9.0220409   6.5991583   9.1783949  )
        34           h   tau(  34) = (  10.9195983   5.7600803   1.5628854  )
        35           h   tau(  35) = (  13.0266112   8.0105854   7.2089972  )
        36           h   tau(  36) = (  11.1290537   4.3486532  14.8245068  )
        37           h   tau(  37) = (   2.1218799  11.7144083  12.5560041  )
        38           h   tau(  38) = (   4.0194374   0.6448302   4.9404945  )
        39           h   tau(  39) = (   5.2438482   2.3426210  14.3616664  )
        40           h   tau(  40) = (   7.1414057  10.0166176   6.7461568  )
        41           h   tau(  41) = (   5.5452690   6.7320313  12.6891956  )
        42           h   tau(  42) = (   7.4428264   5.6272072   5.0736861  )
        43           h   tau(  43) = (   2.8279764   8.0769179   9.1386757  )
        44           h   tau(  44) = (   4.7255339   4.2823207   1.5231662  )
        45           o   tau(  45) = (  -1.1269929   1.6306667   4.5228641  )
        46           o   tau(  46) = (  -3.0245504  10.7285719  12.1383736  )

     number of k points=     2
                       cart. coord. in units 2pi/alat
        k(    1) = (   0.0121191   0.0202278   0.0194336), wk =   1.0000000
        k(    2) = (   0.0128137   0.0202278  -0.0132211), wk =   1.0000000

     Dense  grid:   435419 G-vectors     FFT dimensions: ( 125,  75,  96)

     Smooth grid:   237021 G-vectors     FFT dimensions: ( 100,  64,  80)

     Largest allocated arrays     est. size (Mb)     dimensions
        Kohn-Sham Wavefunctions         8.17 Mb     (   7438,   72)
        NL pseudopotentials            30.87 Mb     (   7438,  272)
        Each V/rho on FFT grid          3.43 Mb     ( 225000)
        Each G-vector array             0.83 Mb     ( 108855)
        G-vector shells                 0.83 Mb     ( 108855)
     Largest temporary arrays     est. size (Mb)     dimensions
        Auxiliary wavefunctions        32.69 Mb     (   7438,  288)
        Each subspace H/S matrix        1.27 Mb     ( 288, 288)
        Each <psi_i|beta_j> matrix      0.30 Mb     (    272,   72)
        Arrays for rho mixing          27.47 Mb     ( 225000,   8)

     Check: negative/imaginary core charge=   -0.000002    0.000000

     Initial potential from superposition of free atoms

     starting charge  143.99643, renormalised to  144.00000
     Starting wfc are  136 atomic wfcs
     Checking if some PAW data can be deallocated... 

     total cpu time spent up to now is       29.2 secs

     per-process dynamical memory:   120.2 Mb

     Self-consistent Calculation

     iteration #  1     ecut=    60.00 Ry     beta=0.70
     Davidson diagonalization with overlap
     ethr =  1.00E-02,  avg # of iterations =  9.0

     total cpu time spent up to now is       59.1 secs

     total energy              =   -1940.30189382 Ry
     Harris-Foulkes estimate   =   -1945.11678233 Ry
     estimated scf accuracy    <      35.36019704 Ry

     iteration #  2     ecut=    60.00 Ry     beta=0.70
     Davidson diagonalization with overlap
     ethr =  1.00E-02,  avg # of iterations =  4.5

     total cpu time spent up to now is       84.2 secs

     total energy              =   -1940.31413378 Ry
     Harris-Foulkes estimate   =   -1942.59492957 Ry
     estimated scf accuracy    <      14.35748699 Ry

     iteration #  3     ecut=    60.00 Ry     beta=0.70
     Davidson diagonalization with overlap
     ethr =  9.97E-03,  avg # of iterations =  5.0

     total cpu time spent up to now is      110.9 secs

     total energy              =   -1941.45040407 Ry
     Harris-Foulkes estimate   =   -1944.21897444 Ry
     estimated scf accuracy    <      10.50212677 Ry

     iteration #  4     ecut=    60.00 Ry     beta=0.70
     Davidson diagonalization with overlap
     ethr =  7.29E-03,  avg # of iterations =  3.0

     total cpu time spent up to now is      135.0 secs

     total energy              =   -1942.20971176 Ry
     Harris-Foulkes estimate   =   -1942.43816550 Ry
     estimated scf accuracy    <       0.40581034 Ry

     iteration #  5     ecut=    60.00 Ry     beta=0.70
     Davidson diagonalization with overlap
     ethr =  2.82E-04,  avg # of iterations =  5.0

     total cpu time spent up to now is      171.1 secs

     total energy              =   -1942.62277338 Ry
     Harris-Foulkes estimate   =   -1943.34213883 Ry
     estimated scf accuracy    <       3.40071566 Ry

     iteration #  6     ecut=    60.00 Ry     beta=0.70
     Davidson diagonalization with overlap
     ethr =  2.82E-04,  avg # of iterations =  6.0

     total cpu time spent up to now is      201.6 secs

     total energy              =   -1942.92925662 Ry
     Harris-Foulkes estimate   =   -1942.94048205 Ry
     estimated scf accuracy    <       0.02403112 Ry

     iteration #  7     ecut=    60.00 Ry     beta=0.70
     Davidson diagonalization with overlap
     ethr =  1.67E-05,  avg # of iterations =  6.0

     total cpu time spent up to now is      231.2 secs

     total energy              =   -1942.93890426 Ry
     Harris-Foulkes estimate   =   -1942.94014273 Ry
     estimated scf accuracy    <       0.00598774 Ry

     iteration #  8     ecut=    60.00 Ry     beta=0.70
     Davidson diagonalization with overlap
     ethr =  4.16E-06,  avg # of iterations =  1.0

     total cpu time spent up to now is      254.3 secs

     total energy              =   -1942.93858258 Ry
     Harris-Foulkes estimate   =   -1942.93911959 Ry
     estimated scf accuracy    <       0.00217632 Ry

     iteration #  9     ecut=    60.00 Ry     beta=0.70
     Davidson diagonalization with overlap
     ethr =  1.51E-06,  avg # of iterations =  5.0

     total cpu time spent up to now is      288.2 secs

     total energy              =   -1942.94055854 Ry
     Harris-Foulkes estimate   =   -1942.94042793 Ry
     estimated scf accuracy    <       0.00182690 Ry

     iteration # 10     ecut=    60.00 Ry     beta=0.70
     Davidson diagonalization with overlap
     ethr =  1.27E-06,  avg # of iterations =  1.0

     total cpu time spent up to now is      311.4 secs

     total energy              =   -1942.93978440 Ry
     Harris-Foulkes estimate   =   -1942.94057963 Ry
     estimated scf accuracy    <       0.00211499 Ry

     iteration # 11     ecut=    60.00 Ry     beta=0.70
     Davidson diagonalization with overlap
     ethr =  1.27E-06,  avg # of iterations =  1.0

     total cpu time spent up to now is      334.6 secs

     total energy              =   -1942.93920912 Ry
     Harris-Foulkes estimate   =   -1942.93981414 Ry
     estimated scf accuracy    <       0.00097536 Ry

     iteration # 12     ecut=    60.00 Ry     beta=0.70
     Davidson diagonalization with overlap
     ethr =  6.77E-07,  avg # of iterations =  5.0

     total cpu time spent up to now is      369.4 secs

     total energy              =   -1942.94125333 Ry
     Harris-Foulkes estimate   =   -1942.94121730 Ry
     estimated scf accuracy    <       0.00614272 Ry

     iteration # 13     ecut=    60.00 Ry     beta=0.70
     Davidson diagonalization with overlap
     ethr =  6.77E-07,  avg # of iterations =  1.0

     total cpu time spent up to now is      392.6 secs

     total energy              =   -1942.94090575 Ry
     Harris-Foulkes estimate   =   -1942.94126034 Ry
     estimated scf accuracy    <       0.00624677 Ry

     iteration # 14     ecut=    60.00 Ry     beta=0.70
     Davidson diagonalization with overlap
     ethr =  6.77E-07,  avg # of iterations =  1.0

     total cpu time spent up to now is      415.8 secs

     total energy              =   -1942.94062376 Ry
     Harris-Foulkes estimate   =   -1942.94091045 Ry
     estimated scf accuracy    <       0.00572585 Ry

     iteration # 15     ecut=    60.00 Ry     beta=0.70
     Davidson diagonalization with overlap
     ethr =  6.77E-07,  avg # of iterations =  1.0

     total cpu time spent up to now is      439.0 secs

     total energy              =   -1942.94094083 Ry
     Harris-Foulkes estimate   =   -1942.94063217 Ry
     estimated scf accuracy    <       0.00515322 Ry

     iteration # 16     ecut=    60.00 Ry     beta=0.70
     Davidson diagonalization with overlap
     ethr =  6.77E-07,  avg # of iterations =  1.0

     total cpu time spent up to now is      462.2 secs

     total energy              =   -1942.94163176 Ry
     Harris-Foulkes estimate   =   -1942.94094541 Ry
     estimated scf accuracy    <       0.00560063 Ry

     iteration # 17     ecut=    60.00 Ry     beta=0.70
     Davidson diagonalization with overlap
     ethr =  6.77E-07,  avg # of iterations =  1.0

     total cpu time spent up to now is      485.4 secs

     total energy              =   -1942.93862292 Ry
     Harris-Foulkes estimate   =   -1942.94164185 Ry
     estimated scf accuracy    <       0.00681915 Ry

     iteration # 18     ecut=    60.00 Ry     beta=0.70
     Davidson diagonalization with overlap
     ethr =  6.77E-07,  avg # of iterations =  5.0

     total cpu time spent up to now is      518.8 secs

     total energy              =   -1942.94055013 Ry
     Harris-Foulkes estimate   =   -1942.94023273 Ry
     estimated scf accuracy    <       0.00109432 Ry

     iteration # 19     ecut=    60.00 Ry     beta=0.70
     Davidson diagonalization with overlap
     ethr =  6.77E-07,  avg # of iterations =  1.0

     total cpu time spent up to now is      542.0 secs

     total energy              =   -1942.94104603 Ry
     Harris-Foulkes estimate   =   -1942.94056542 Ry
     estimated scf accuracy    <       0.00160131 Ry

     iteration # 20     ecut=    60.00 Ry     beta=0.70
     Davidson diagonalization with overlap
     ethr =  6.77E-07,  avg # of iterations =  5.5

     total cpu time spent up to now is      572.0 secs

     total energy              =   -1942.94124819 Ry
     Harris-Foulkes estimate   =   -1942.94158053 Ry
     estimated scf accuracy    <       0.00873566 Ry

     iteration # 21     ecut=    60.00 Ry     beta=0.70
     Davidson diagonalization with overlap
     ethr =  6.77E-07,  avg # of iterations =  1.0

     total cpu time spent up to now is      595.3 secs

     total energy              =   -1942.94052353 Ry
     Harris-Foulkes estimate   =   -1942.94125299 Ry
     estimated scf accuracy    <       0.00820448 Ry

     iteration # 22     ecut=    60.00 Ry     beta=0.70
     Davidson diagonalization with overlap
     ethr =  6.77E-07,  avg # of iterations =  1.0

     total cpu time spent up to now is      618.5 secs

     total energy              =   -1942.93980538 Ry
     Harris-Foulkes estimate   =   -1942.94053603 Ry
     estimated scf accuracy    <       0.00695082 Ry

     iteration # 23     ecut=    60.00 Ry     beta=0.70
     Davidson diagonalization with overlap
     ethr =  6.77E-07,  avg # of iterations =  6.0

     total cpu time spent up to now is      648.0 secs

     total energy              =   -1942.93987000 Ry
     Harris-Foulkes estimate   =   -1942.94027383 Ry
     estimated scf accuracy    <       0.00150569 Ry

     iteration # 24     ecut=    60.00 Ry     beta=0.70
     Davidson diagonalization with overlap
     ethr =  6.77E-07,  avg # of iterations =  1.0

     total cpu time spent up to now is      671.2 secs

     total energy              =   -1942.93973909 Ry
     Harris-Foulkes estimate   =   -1942.93989542 Ry
     estimated scf accuracy    <       0.00083644 Ry

     iteration # 25     ecut=    60.00 Ry     beta=0.70
     Davidson diagonalization with overlap
     ethr =  5.81E-07,  avg # of iterations =  5.0

     total cpu time spent up to now is      700.0 secs

     total energy              =   -1942.94009834 Ry
     Harris-Foulkes estimate   =   -1942.94009109 Ry
     estimated scf accuracy    <       0.00036419 Ry

     iteration # 26     ecut=    60.00 Ry     beta=0.70
     Davidson diagonalization with overlap
     ethr =  2.53E-07,  avg # of iterations =  1.0

     total cpu time spent up to now is      723.2 secs

     total energy              =   -1942.93997252 Ry
     Harris-Foulkes estimate   =   -1942.94010689 Ry
     estimated scf accuracy    <       0.00039218 Ry

     iteration # 27     ecut=    60.00 Ry     beta=0.70
     Davidson diagonalization with overlap
     ethr =  2.53E-07,  avg # of iterations =  1.0

     total cpu time spent up to now is      746.4 secs

     total energy              =   -1942.93994401 Ry
     Harris-Foulkes estimate   =   -1942.93998170 Ry
     estimated scf accuracy    <       0.00018972 Ry

     iteration # 28     ecut=    60.00 Ry     beta=0.70
     Davidson diagonalization with overlap
     ethr =  1.32E-07,  avg # of iterations =  6.0

     total cpu time spent up to now is      777.8 secs

     total energy              =   -1942.94005829 Ry
     Harris-Foulkes estimate   =   -1942.94005898 Ry
     estimated scf accuracy    <       0.00012815 Ry

     iteration # 29     ecut=    60.00 Ry     beta=0.70
     Davidson diagonalization with overlap
     ethr =  8.90E-08,  avg # of iterations =  1.0

     total cpu time spent up to now is      801.0 secs

     total energy              =   -1942.94003444 Ry
     Harris-Foulkes estimate   =   -1942.94005930 Ry
     estimated scf accuracy    <       0.00012570 Ry

     iteration # 30     ecut=    60.00 Ry     beta=0.70
     Davidson diagonalization with overlap
     ethr =  8.73E-08,  avg # of iterations =  1.0

     total cpu time spent up to now is      824.2 secs

     total energy              =   -1942.94000514 Ry
     Harris-Foulkes estimate   =   -1942.94003508 Ry
     estimated scf accuracy    <       0.00008682 Ry

     iteration # 31     ecut=    60.00 Ry     beta=0.70
     Davidson diagonalization with overlap
     ethr =  6.03E-08,  avg # of iterations =  6.5

     total cpu time spent up to now is      848.5 secs

     total energy              =   -1942.93999753 Ry
     Harris-Foulkes estimate   =   -1942.94001054 Ry
     estimated scf accuracy    <       0.00002750 Ry

     iteration # 32     ecut=    60.00 Ry     beta=0.70
     Davidson diagonalization with overlap
     ethr =  1.91E-08,  avg # of iterations =  5.0

     total cpu time spent up to now is      885.2 secs

     total energy              =   -1942.94005999 Ry
     Harris-Foulkes estimate   =   -1942.94007693 Ry
     estimated scf accuracy    <       0.00020989 Ry

     iteration # 33     ecut=    60.00 Ry     beta=0.70
     Davidson diagonalization with overlap
     ethr =  1.91E-08,  avg # of iterations =  1.0

     total cpu time spent up to now is      908.4 secs

     total energy              =   -1942.93999725 Ry
     Harris-Foulkes estimate   =   -1942.94006017 Ry
     estimated scf accuracy    <       0.00018148 Ry

     iteration # 34     ecut=    60.00 Ry     beta=0.70
     Davidson diagonalization with overlap
     ethr =  1.91E-08,  avg # of iterations =  5.0

     total cpu time spent up to now is      942.8 secs

     total energy              =   -1942.94003234 Ry
     Harris-Foulkes estimate   =   -1942.94003710 Ry
     estimated scf accuracy    <       0.00002203 Ry

     iteration # 35     ecut=    60.00 Ry     beta=0.70
     Davidson diagonalization with overlap
     ethr =  1.53E-08,  avg # of iterations =  1.0

     total cpu time spent up to now is      966.0 secs

     total energy              =   -1942.94002791 Ry
     Harris-Foulkes estimate   =   -1942.94003252 Ry
     estimated scf accuracy    <       0.00001449 Ry

     iteration # 36     ecut=    60.00 Ry     beta=0.70
     Davidson diagonalization with overlap
     ethr =  1.01E-08,  avg # of iterations =  6.0

     total cpu time spent up to now is      995.2 secs

     total energy              =   -1942.94003500 Ry
     Harris-Foulkes estimate   =   -1942.94003478 Ry
     estimated scf accuracy    <       0.00000829 Ry

     iteration # 37     ecut=    60.00 Ry     beta=0.70
     Davidson diagonalization with overlap
     ethr =  5.75E-09,  avg # of iterations =  1.0

     total cpu time spent up to now is     1018.4 secs

     total energy              =   -1942.94003485 Ry
     Harris-Foulkes estimate   =   -1942.94003508 Ry
     estimated scf accuracy    <       0.00000884 Ry

     iteration # 38     ecut=    60.00 Ry     beta=0.70
     Davidson diagonalization with overlap
     ethr =  5.75E-09,  avg # of iterations =  1.0

     total cpu time spent up to now is     1041.6 secs

     total energy              =   -1942.94003435 Ry
     Harris-Foulkes estimate   =   -1942.94003490 Ry
     estimated scf accuracy    <       0.00000853 Ry

     iteration # 39     ecut=    60.00 Ry     beta=0.70
     Davidson diagonalization with overlap
     ethr =  5.75E-09,  avg # of iterations =  1.0

     total cpu time spent up to now is     1064.8 secs

     total energy              =   -1942.94003309 Ry
     Harris-Foulkes estimate   =   -1942.94003441 Ry
     estimated scf accuracy    <       0.00000766 Ry

     iteration # 40     ecut=    60.00 Ry     beta=0.70
     Davidson diagonalization with overlap
     ethr =  5.32E-09,  avg # of iterations =  1.0

     total cpu time spent up to now is     1087.9 secs

     total energy              =   -1942.94003259 Ry
     Harris-Foulkes estimate   =   -1942.94003322 Ry
     estimated scf accuracy    <       0.00000515 Ry

     iteration # 41     ecut=    60.00 Ry     beta=0.70
     Davidson diagonalization with overlap
     ethr =  3.57E-09,  avg # of iterations =  3.5

     total cpu time spent up to now is     1111.5 secs

     total energy              =   -1942.94003142 Ry
     Harris-Foulkes estimate   =   -1942.94003275 Ry
     estimated scf accuracy    <       0.00000386 Ry

     iteration # 42     ecut=    60.00 Ry     beta=0.70
     Davidson diagonalization with overlap
     ethr =  2.68E-09,  avg # of iterations =  6.0

     total cpu time spent up to now is     1141.6 secs

     total energy              =   -1942.94003394 Ry
     Harris-Foulkes estimate   =   -1942.94003410 Ry
     estimated scf accuracy    <       0.00000426 Ry

     iteration # 43     ecut=    60.00 Ry     beta=0.70
     Davidson diagonalization with overlap
     ethr =  2.68E-09,  avg # of iterations =  1.0

     total cpu time spent up to now is     1164.8 secs

     total energy              =   -1942.94003446 Ry
     Harris-Foulkes estimate   =   -1942.94003401 Ry
     estimated scf accuracy    <       0.00000411 Ry

     iteration # 44     ecut=    60.00 Ry     beta=0.70
     Davidson diagonalization with overlap
     ethr =  2.68E-09,  avg # of iterations =  1.0

     total cpu time spent up to now is     1188.0 secs

     total energy              =   -1942.94003393 Ry
     Harris-Foulkes estimate   =   -1942.94003451 Ry
     estimated scf accuracy    <       0.00000497 Ry

     iteration # 45     ecut=    60.00 Ry     beta=0.70
     Davidson diagonalization with overlap
     ethr =  2.68E-09,  avg # of iterations =  1.0

     total cpu time spent up to now is     1211.2 secs

     total energy              =   -1942.94003339 Ry
     Harris-Foulkes estimate   =   -1942.94003397 Ry
     estimated scf accuracy    <       0.00000422 Ry

     iteration # 46     ecut=    60.00 Ry     beta=0.70
     Davidson diagonalization with overlap
     ethr =  2.68E-09,  avg # of iterations =  1.0

     total cpu time spent up to now is     1234.4 secs

     total energy              =   -1942.94003299 Ry
     Harris-Foulkes estimate   =   -1942.94003343 Ry
     estimated scf accuracy    <       0.00000317 Ry

     iteration # 47     ecut=    60.00 Ry     beta=0.70
     Davidson diagonalization with overlap
     ethr =  2.20E-09,  avg # of iterations =  1.0

     total cpu time spent up to now is     1257.6 secs

     total energy              =   -1942.94003295 Ry
     Harris-Foulkes estimate   =   -1942.94003304 Ry
     estimated scf accuracy    <       0.00000239 Ry

     iteration # 48     ecut=    60.00 Ry     beta=0.70
     Davidson diagonalization with overlap
     ethr =  1.66E-09,  avg # of iterations =  1.0

     total cpu time spent up to now is     1280.8 secs

     total energy              =   -1942.94003294 Ry
     Harris-Foulkes estimate   =   -1942.94003299 Ry
     estimated scf accuracy    <       0.00000210 Ry

     iteration # 49     ecut=    60.00 Ry     beta=0.70
     Davidson diagonalization with overlap
     ethr =  1.46E-09,  avg # of iterations =  1.0

     total cpu time spent up to now is     1304.0 secs

     total energy              =   -1942.94003335 Ry
     Harris-Foulkes estimate   =   -1942.94003299 Ry
     estimated scf accuracy    <       0.00000186 Ry

     iteration # 50     ecut=    60.00 Ry     beta=0.70
     Davidson diagonalization with overlap
     ethr =  1.29E-09,  avg # of iterations =  1.0

     total cpu time spent up to now is     1327.2 secs

     total energy              =   -1942.94003159 Ry
     Harris-Foulkes estimate   =   -1942.94003338 Ry
     estimated scf accuracy    <       0.00000230 Ry

     iteration # 51     ecut=    60.00 Ry     beta=0.70
     Davidson diagonalization with overlap
     ethr =  1.29E-09,  avg # of iterations =  5.0

     total cpu time spent up to now is     1363.3 secs

     total energy              =   -1942.94003374 Ry
     Harris-Foulkes estimate   =   -1942.94003856 Ry
     estimated scf accuracy    <       0.00002740 Ry

     iteration # 52     ecut=    60.00 Ry     beta=0.70
     Davidson diagonalization with overlap
     ethr =  1.29E-09,  avg # of iterations = 10.0

     total cpu time spent up to now is     1392.6 secs

     total energy              =   -1942.94003447 Ry
     Harris-Foulkes estimate   =   -1942.94003456 Ry
     estimated scf accuracy    <       0.00000872 Ry

     iteration # 53     ecut=    60.00 Ry     beta=0.70
     Davidson diagonalization with overlap
     ethr =  1.29E-09,  avg # of iterations =  1.0

     total cpu time spent up to now is     1415.8 secs

     total energy              =   -1942.94003415 Ry
     Harris-Foulkes estimate   =   -1942.94003449 Ry
     estimated scf accuracy    <       0.00000846 Ry

     iteration # 54     ecut=    60.00 Ry     beta=0.70
     Davidson diagonalization with overlap
     ethr =  1.29E-09,  avg # of iterations =  1.0

     total cpu time spent up to now is     1439.0 secs

     total energy              =   -1942.94003413 Ry
     Harris-Foulkes estimate   =   -1942.94003417 Ry
     estimated scf accuracy    <       0.00000778 Ry

     iteration # 55     ecut=    60.00 Ry     beta=0.70
     Davidson diagonalization with overlap
     ethr =  1.29E-09,  avg # of iterations =  1.0

     total cpu time spent up to now is     1462.2 secs

     total energy              =   -1942.94003425 Ry
     Harris-Foulkes estimate   =   -1942.94003415 Ry
     estimated scf accuracy    <       0.00000764 Ry

     iteration # 56     ecut=    60.00 Ry     beta=0.70
     Davidson diagonalization with overlap
     ethr =  1.29E-09,  avg # of iterations =  1.0

     total cpu time spent up to now is     1485.4 secs

     total energy              =   -1942.94003418 Ry
     Harris-Foulkes estimate   =   -1942.94003427 Ry
     estimated scf accuracy    <       0.00000764 Ry

     iteration # 57     ecut=    60.00 Ry     beta=0.70
     Davidson diagonalization with overlap
     ethr =  1.29E-09,  avg # of iterations =  1.0

     total cpu time spent up to now is     1508.6 secs

     total energy              =   -1942.94003518 Ry
     Harris-Foulkes estimate   =   -1942.94003420 Ry
     estimated scf accuracy    <       0.00000737 Ry

     iteration # 58     ecut=    60.00 Ry     beta=0.70
     Davidson diagonalization with overlap
     ethr =  1.29E-09,  avg # of iterations =  1.0

     total cpu time spent up to now is     1531.7 secs

     total energy              =   -1942.94003452 Ry
     Harris-Foulkes estimate   =   -1942.94003519 Ry
     estimated scf accuracy    <       0.00000896 Ry

     iteration # 59     ecut=    60.00 Ry     beta=0.70
     Davidson diagonalization with overlap
     ethr =  1.29E-09,  avg # of iterations =  1.0

     total cpu time spent up to now is     1554.9 secs

     total energy              =   -1942.94003260 Ry
     Harris-Foulkes estimate   =   -1942.94003454 Ry
     estimated scf accuracy    <       0.00000777 Ry

     iteration # 60     ecut=    60.00 Ry     beta=0.70
     Davidson diagonalization with overlap
     ethr =  1.29E-09,  avg # of iterations =  1.5

     total cpu time spent up to now is     1578.2 secs

     total energy              =   -1942.94002924 Ry
     Harris-Foulkes estimate   =   -1942.94003267 Ry
     estimated scf accuracy    <       0.00000468 Ry

     iteration # 61     ecut=    60.00 Ry     beta=0.70
     Davidson diagonalization with overlap
     ethr =  1.29E-09,  avg # of iterations =  5.0

     total cpu time spent up to now is     1615.3 secs

     total energy              =   -1942.94003048 Ry
     Harris-Foulkes estimate   =   -1942.94004194 Ry
     estimated scf accuracy    <       0.00004840 Ry

     iteration # 62     ecut=    60.00 Ry     beta=0.70
     Davidson diagonalization with overlap
     ethr =  1.29E-09,  avg # of iterations =  5.0

     total cpu time spent up to now is     1649.5 secs

     total energy              =   -1942.94003229 Ry
     Harris-Foulkes estimate   =   -1942.94003384 Ry
     estimated scf accuracy    <       0.00000526 Ry

     iteration # 63     ecut=    60.00 Ry     beta=0.70
     Davidson diagonalization with overlap
     ethr =  1.29E-09,  avg # of iterations = 10.0

     total cpu time spent up to now is     1679.0 secs

     total energy              =   -1942.94003336 Ry
     Harris-Foulkes estimate   =   -1942.94003336 Ry
     estimated scf accuracy    <       0.00000011 Ry

     iteration # 64     ecut=    60.00 Ry     beta=0.70
     Davidson diagonalization with overlap
     ethr =  7.45E-11,  avg # of iterations =  5.0

     total cpu time spent up to now is     1712.4 secs

     total energy              =   -1942.94003341 Ry
     Harris-Foulkes estimate   =   -1942.94003343 Ry
     estimated scf accuracy    <       0.00000019 Ry

     iteration # 65     ecut=    60.00 Ry     beta=0.70
     Davidson diagonalization with overlap
     ethr =  7.45E-11,  avg # of iterations =  1.0

     total cpu time spent up to now is     1735.6 secs

     total energy              =   -1942.94003335 Ry
     Harris-Foulkes estimate   =   -1942.94003341 Ry
     estimated scf accuracy    <       0.00000016 Ry

     iteration # 66     ecut=    60.00 Ry     beta=0.70
     Davidson diagonalization with overlap
     ethr =  7.45E-11,  avg # of iterations =  1.0

     total cpu time spent up to now is     1758.8 secs

     total energy              =   -1942.94003333 Ry
     Harris-Foulkes estimate   =   -1942.94003336 Ry
     estimated scf accuracy    <       0.00000007 Ry

     iteration # 67     ecut=    60.00 Ry     beta=0.70
     Davidson diagonalization with overlap
     ethr =  4.57E-11,  avg # of iterations =  5.0

     total cpu time spent up to now is     1793.6 secs

     total energy              =   -1942.94003344 Ry
     Harris-Foulkes estimate   =   -1942.94003345 Ry
     estimated scf accuracy    <       0.00000026 Ry

     iteration # 68     ecut=    60.00 Ry     beta=0.70
     Davidson diagonalization with overlap
     ethr =  4.57E-11,  avg # of iterations =  1.0

     total cpu time spent up to now is     1816.8 secs

     total energy              =   -1942.94003346 Ry
     Harris-Foulkes estimate   =   -1942.94003344 Ry
     estimated scf accuracy    <       0.00000025 Ry

     iteration # 69     ecut=    60.00 Ry     beta=0.70
     Davidson diagonalization with overlap
     ethr =  4.57E-11,  avg # of iterations =  1.0

     total cpu time spent up to now is     1840.0 secs

     total energy              =   -1942.94003348 Ry
     Harris-Foulkes estimate   =   -1942.94003346 Ry
     estimated scf accuracy    <       0.00000028 Ry

     iteration # 70     ecut=    60.00 Ry     beta=0.70
     Davidson diagonalization with overlap
     ethr =  4.57E-11,  avg # of iterations =  5.0

     total cpu time spent up to now is     1864.1 secs

     total energy              =   -1942.94003345 Ry
     Harris-Foulkes estimate   =   -1942.94003348 Ry
     estimated scf accuracy    <       0.00000033 Ry

     iteration # 71     ecut=    60.00 Ry     beta=0.70
     Davidson diagonalization with overlap
     ethr =  4.57E-11,  avg # of iterations =  1.0

     total cpu time spent up to now is     1887.3 secs

     total energy              =   -1942.94003343 Ry
     Harris-Foulkes estimate   =   -1942.94003345 Ry
     estimated scf accuracy    <       0.00000029 Ry

     iteration # 72     ecut=    60.00 Ry     beta=0.70
     Davidson diagonalization with overlap
     ethr =  4.57E-11,  avg # of iterations =  1.0

     total cpu time spent up to now is     1910.5 secs

     total energy              =   -1942.94003342 Ry
     Harris-Foulkes estimate   =   -1942.94003343 Ry
     estimated scf accuracy    <       0.00000025 Ry

     iteration # 73     ecut=    60.00 Ry     beta=0.70
     Davidson diagonalization with overlap
     ethr =  4.57E-11,  avg # of iterations =  1.0

     total cpu time spent up to now is     1933.7 secs

     total energy              =   -1942.94003339 Ry
     Harris-Foulkes estimate   =   -1942.94003342 Ry
     estimated scf accuracy    <       0.00000022 Ry

     iteration # 74     ecut=    60.00 Ry     beta=0.70
     Davidson diagonalization with overlap
     ethr =  4.57E-11,  avg # of iterations =  6.5

     total cpu time spent up to now is     1957.8 secs

     total energy              =   -1942.94003339 Ry
     Harris-Foulkes estimate   =   -1942.94003339 Ry
     estimated scf accuracy    <       0.00000017 Ry

     iteration # 75     ecut=    60.00 Ry     beta=0.70
     Davidson diagonalization with overlap
     ethr =  4.57E-11,  avg # of iterations =  3.5

     total cpu time spent up to now is     1981.3 secs

     total energy              =   -1942.94003330 Ry
     Harris-Foulkes estimate   =   -1942.94003339 Ry
     estimated scf accuracy    <       0.00000014 Ry

     iteration # 76     ecut=    60.00 Ry     beta=0.70
     Davidson diagonalization with overlap
     ethr =  4.57E-11,  avg # of iterations =  5.0

     total cpu time spent up to now is     2017.8 secs

     total energy              =   -1942.94003338 Ry
     Harris-Foulkes estimate   =   -1942.94003360 Ry
     estimated scf accuracy    <       0.00000110 Ry

     iteration # 77     ecut=    60.00 Ry     beta=0.70
     Davidson diagonalization with overlap
     ethr =  4.57E-11,  avg # of iterations =  6.0

     total cpu time spent up to now is     2049.7 secs

     total energy              =   -1942.94003337 Ry
     Harris-Foulkes estimate   =   -1942.94003343 Ry
     estimated scf accuracy    <       0.00000021 Ry

     iteration # 78     ecut=    60.00 Ry     beta=0.70
     Davidson diagonalization with overlap
     ethr =  4.57E-11,  avg # of iterations =  8.0

     total cpu time spent up to now is     2075.3 secs

     total energy              =   -1942.94003338 Ry
     Harris-Foulkes estimate   =   -1942.94003338 Ry
     estimated scf accuracy    <       0.00000008 Ry

     iteration # 79     ecut=    60.00 Ry     beta=0.70
     Davidson diagonalization with overlap
     ethr =  4.57E-11,  avg # of iterations =  1.0

     total cpu time spent up to now is     2098.5 secs

     total energy              =   -1942.94003337 Ry
     Harris-Foulkes estimate   =   -1942.94003338 Ry
     estimated scf accuracy    <       0.00000007 Ry

     iteration # 80     ecut=    60.00 Ry     beta=0.70
     Davidson diagonalization with overlap
     ethr =  4.57E-11,  avg # of iterations =  1.0

     total cpu time spent up to now is     2121.7 secs

     total energy              =   -1942.94003337 Ry
     Harris-Foulkes estimate   =   -1942.94003338 Ry
     estimated scf accuracy    <       0.00000006 Ry

     iteration # 81     ecut=    60.00 Ry     beta=0.70
     Davidson diagonalization with overlap
     ethr =  4.19E-11,  avg # of iterations =  8.0

     total cpu time spent up to now is     2150.5 secs

     End of self-consistent calculation

          k = 0.0121 0.0202 0.0194 ( 29623 PWs)   bands (ev):

   -15.3458 -15.2379 -14.1217 -14.0847 -14.0650 -14.0268 -11.4214 -11.3665
   -11.3493 -11.3161 -11.3098 -11.2832 -11.1034 -11.0781  -8.0836  -7.9928
    -7.8795  -7.8421  -7.6634  -7.5943  -7.3773  -7.3568  -6.7241  -6.3784
    -5.8408  -5.7544  -5.4702  -5.2142  -4.6458  -4.3799  -4.0240  -3.9602
    -3.8717  -3.8475  -3.6832  -3.6351  -3.5991  -3.5673  -2.8861  -2.8117
    -2.6706  -2.5679  -2.5214  -2.3930  -2.3223  -2.2515  -1.9678  -1.8909
    -1.8333  -1.7640  -1.5170  -1.3011  -0.7736  -0.7107  -0.6463  -0.1040
     0.0298   0.1278   0.3052   0.3553   0.4792   0.5258   0.6486   0.6614
     0.7695   0.8801   1.0499   1.0987   1.1578   1.2553   1.8340   1.9886

          k = 0.0128 0.0202-0.0132 ( 29610 PWs)   bands (ev):

   -15.3458 -15.2379 -14.1276 -14.0730 -14.0591 -14.0384 -11.4272 -11.3670
   -11.3426 -11.3217 -11.2998 -11.2846 -11.1194 -11.0650  -8.0856  -8.0038
    -7.8863  -7.8222  -7.6599  -7.5872  -7.3908  -7.3541  -6.7144  -6.3945
    -5.8287  -5.7547  -5.4028  -5.3125  -4.6038  -4.4091  -4.0162  -3.9695
    -3.8672  -3.8500  -3.6601  -3.6468  -3.6095  -3.5673  -2.9029  -2.8436
    -2.6726  -2.5763  -2.4879  -2.3387  -2.2613  -2.1966  -2.0230  -1.9797
    -1.8413  -1.7450  -1.4848  -1.3146  -0.7616  -0.7154  -0.6732  -0.0823
     0.0363   0.1412   0.3119   0.3383   0.4552   0.5141   0.6494   0.6628
     0.7406   0.8622   1.0559   1.1136   1.1744   1.2476   1.8384   1.9880
 TIME (initial):        0.0
* Atoms contributing density to the main cell
  Number of atoms:   15778
 
 TIME (set up the environment):        0.1
 DOCALC: T F T T
 ESAVE:       0.000000000000       0.000000000000       0.000000000000
* XDM: using PAW all-electron density reconstruction? T
 TIME (promolecular grid):       21.8
 TIME (calculation of b grid):       22.7
 TIME (calculation of volumes and moments):      161.6
 
+ Volume and moments
# All results in atomic units.
# i              V                  Vfree                 M1                  M2                  M3
  1       136.1914352790       174.2312296757         8.3793769856       213.8755557840      5902.5284469281
  2       136.1914352790       174.2312296757         8.3793769856       213.8755557840      5902.5284469281
  3       136.2392165223       174.2312296757         8.7241620903       218.6921986812      5917.3999033104
  4       136.2392165223       174.2312296757         8.7241620903       218.6921986812      5917.3999033104
  5        33.6639339921        39.0349749523         3.8451709011        50.3590741493       940.6183867227
  6        33.6639339921        39.0349749523         3.8451709011        50.3590741493       940.6183867228
  7        32.1244813576        39.0349749523         4.0357957596        52.4948429285       959.7136279891
  8        32.1244813576        39.0349749523         4.0357957596        52.4948429285       959.7136279891
  9        32.8420602318        39.0349749523         4.0708404524        53.2014950829       964.7966911871
 10        32.8420602318        39.0349749523         4.0708404524        53.2014950829       964.7966911871
 11        33.7999657413        39.0349749523         3.8630459852        50.7665303780       945.1307680218
 12        33.7999657413        39.0349749523         3.8630459852        50.7665303780       945.1307680218
 13        32.6044762184        39.0349749523         4.1037456001        53.3700032700       961.9569303936
 14        32.6044762184        39.0349749523         4.1037456001        53.3700032700       961.9569303936
 15        32.0070038411        39.0349749523         4.0897326070        53.2118066028       962.9772175735
 16        32.0070038411        39.0349749523         4.0897326070        53.2118066028       962.9772175735
 17        32.1649240561        39.0349749523         4.0489097287        52.7986837470       962.4454988124
 18        32.1649240561        39.0349749523         4.0489097287        52.7986837470       962.4454988124
 19        32.8587224132        39.0349749523         4.0722295337        53.2520480743       966.2880831086
 20        32.8587224132        39.0349749523         4.0722295337        53.2520480743       966.2880831086
 21        33.7952231195        39.0349749523         3.8650891037        50.8038038819       945.5876736343
 22        33.7952231195        39.0349749523         3.8650891037        50.8038038819       945.5876736343
 23        33.6500446746        39.0349749523         3.8492913307        50.3566984760       939.5972073157
 24        33.6500446746        39.0349749523         3.8492913307        50.3566984760       939.5972073157
 25        32.5421968316        39.0349749523         4.0971377488        53.1923282938       959.1164358729
 26        32.5421968316        39.0349749523         4.0971377488        53.1923282938       959.1164358729
 27        31.9438506508        39.0349749523         4.0334401957        52.5907163944       958.8939531119
 28        31.9438506508        39.0349749523         4.0334401957        52.5907163944       958.8939531119
 29         7.7342896938        10.4882987305         1.6066463328        14.4036051194       274.0065779465
 30         7.7342896938        10.4882987305         1.6066463328        14.4036051194       274.0065779465
 31         7.3893056882        10.4882987305         1.5999487298        14.1521488586       271.7943863534
 32         7.3893056882        10.4882987305         1.5999487298        14.1521488586       271.7943863534
 33         7.4452155831        10.4882987305         1.5567282818        13.9364948837       272.6111143048
 34         7.4452155831        10.4882987305         1.5567282818        13.9364948837       272.6111143048
 35         7.8959417312        10.4882987305         1.6128132364        14.5479237020       277.5880356943
 36         7.8959417312        10.4882987305         1.6128132364        14.5479237020       277.5880356943
 37         7.6931965308        10.4882987305         1.6077573935        14.4115868941       273.9840413272
 38         7.6931965308        10.4882987305         1.6077573935        14.4115868941       273.9840413272
 39         7.1550090331        10.4882987305         1.5710019708        13.8108192083       270.1936885322
 40         7.1550090331        10.4882987305         1.5710019708        13.8108192083       270.1936885322
 41         7.4315277273        10.4882987305         1.5757941680        13.9816721475       271.3460399695
 42         7.4315277273        10.4882987305         1.5757941680        13.9816721475       271.3460399695
 43         7.8838284020        10.4882987305         1.6152505010        14.5429278574       276.5138630955
 44         7.8838284020        10.4882987305         1.6152505010        14.5429278574       276.5138630955
 45        21.9231001610        23.7788846669         4.4200374654        32.6307413743       324.6565833117
 46        21.9231001610        23.7788846669         4.4200374654        32.6307413743       324.6565833117
 
+ Dispersion coefficients
# All results in atomic units.
# i   j              C6                  C8                  C10                   Rc                  Rvdw
  1   1       145.8633122854     11169.0631787541    810102.5702872770         8.6332652211         8.0700175094
  2   1       145.8633122854     11169.0631787542    810102.5702872815         8.6332652211         8.0700175094
  2   2       145.8633122854     11169.0631787542    810102.5702872861         8.6332652211         8.0700175094
  3   1       148.8303516564     11294.3163024674    811516.5933130069         8.5936663620         8.0539997709
  3   2       148.8303516564     11294.3163024674    811516.5933130118         8.5936663620         8.0539997709
  3   3       151.9184106814     11424.6059076939    813110.6392035139         8.5538624247         8.0378990783
  4   1       148.8303516564     11294.3163024673    811516.5933130011         8.5936663620         8.0539997709
  4   2       148.8303516564     11294.3163024674    811516.5933130058         8.5936663620         8.0539997709
  4   3       151.9184106814     11424.6059076938    813110.6392035079         8.5538624247         8.0378990783
  4   4       151.9184106814     11424.6059076938    813110.6392035016         8.5538624247         8.0378990783
  5   1        52.2981929826      3029.6928911989    172691.1935245317         7.5805070270         7.6441768199
  5   2        52.2981929826      3029.6928911990    172691.1935245323         7.5805070270         7.6441768199
  5   3        53.5962012528      3068.1779574488    172829.7070238555         7.5356974298         7.6260513378
  5   4        53.5962012528      3068.1779574487    172829.7070238542         7.5356974298         7.6260513378
  5   5        19.6927282358       773.7296366844     33455.8342830545         6.4213228115         7.1752868047
  6   1        52.2981929827      3029.6928911990    172691.1935245364         7.5805070270         7.6441768199
  6   2        52.2981929826      3029.6928911990    172691.1935245371         7.5805070270         7.6441768199
  6   3        53.5962012528      3068.1779574488    172829.7070238602         7.5356974298         7.6260513378
  6   4        53.5962012528      3068.1779574488    172829.7070238588         7.5356974298         7.6260513378
  6   5        19.6927282358       773.7296366844     33455.8342830553         6.4213228115         7.1752868047
  6   6        19.6927282358       773.7296366844     33455.8342830561         6.4213228115         7.1752868047
  7   1        51.7420916865      2990.5389197736    169652.9833756287         7.5671531254         7.6387751667
  7   2        51.7420916865      2990.5389197736    169652.9833756294         7.5671531254         7.6387751667
  7   3        53.0740434749      3031.1694078675    169922.1465541261         7.5222037141         7.6205931298
  7   4        53.0740434749      3031.1694078675    169922.1465541247         7.5222037141         7.6205931298
  7   5        19.6859567234       770.8237777672     33078.8938216706         6.4036057599         7.1681202574
  7   6        19.6859567234       770.8237777672     33078.8938216714         6.4036057599         7.1681202574
  7   7        19.7238040106       769.6608464679     32777.0128225366         6.3857777404         7.1609088235
  8   1        51.7420916865      2990.5389197736    169652.9833756285         7.5671531254         7.6387751667
  8   2        51.7420916865      2990.5389197736    169652.9833756293         7.5671531254         7.6387751667
  8   3        53.0740434749      3031.1694078675    169922.1465541259         7.5222037141         7.6205931298
  8   4        53.0740434749      3031.1694078675    169922.1465541245         7.5222037141         7.6205931298
  8   5        19.6859567234       770.8237777672     33078.8938216707         6.4036057599         7.1681202574
  8   6        19.6859567234       770.8237777672     33078.8938216715         6.4036057599         7.1681202574
  8   7        19.7238040106       769.6608464679     32777.0128225366         6.3857777404         7.1609088235
  8   8        19.7238040106       769.6608464679     32777.0128225367         6.3857777404         7.1609088235
  9   1        52.6354961578      3047.0395529871    172845.8899889687         7.5700511572         7.6399474206
  9   2        52.6354961578      3047.0395529872    172845.8899889695         7.5700511572         7.6399474206
  9   3        53.9836495086      3088.1080154124    173098.3133548117         7.5250846353         7.6217584625
  9   4        53.9836495086      3088.1080154124    173098.3133548102         7.5250846353         7.6217584625
  9   5        19.9967851546       784.8426634557     33637.0235791890         6.4052249755         7.1687752301
  9   6        19.9967851546       784.8426634557     33637.0235791898         6.4052249755         7.1687752301
  9   7        20.0288239585       783.4143541271     33319.3245519397         6.3873929104         7.1615621597
  9   8        20.0288239585       783.4143541271     33319.3245519398         6.3873929104         7.1615621597
  9   9        20.3394801472       797.4452197564     33872.4259308816         6.3890259721         7.1622227332
 10   1        52.6354961578      3047.0395529871    172845.8899889694         7.5700511572         7.6399474206
 10   2        52.6354961578      3047.0395529872    172845.8899889701         7.5700511572         7.6399474206
 10   3        53.9836495086      3088.1080154124    173098.3133548123         7.5250846353         7.6217584625
 10   4        53.9836495086      3088.1080154124    173098.3133548108         7.5250846353         7.6217584625
 10   5        19.9967851546       784.8426634557     33637.0235791892         6.4052249755         7.1687752301
 10   6        19.9967851546       784.8426634557     33637.0235791900         6.4052249755         7.1687752301
 10   7        20.0288239585       783.4143541271     33319.3245519399         6.3873929104         7.1615621597
 10   8        20.0288239585       783.4143541271     33319.3245519399         6.3873929104         7.1615621597
 10   9        20.3394801472       797.4452197564     33872.4259308818         6.3890259721         7.1622227332
 10  10        20.3394801472       797.4452197564     33872.4259308820         6.3890259721         7.1622227332
 11   1        52.5219376467      3046.1899982845    173686.4690025811         7.5833123334         7.6453115663
 11   2        52.5219376467      3046.1899982846    173686.4690025818         7.5833123334         7.6453115663
 11   3        53.8258103813      3084.9452973787    173828.3131999826         7.5385027933         7.6271861074
 11   4        53.8258103813      3084.9452973787    173828.3131999811         7.5385027933         7.6271861074
 11   5        19.7782872420       778.4225655398     33651.4405528920         6.4236732899         7.1762375732
 11   6        19.7782872420       778.4225655398     33651.4405528928         6.4236732899         7.1762375732
 11   7        19.7717708673       775.5147850655     33272.9908607217         6.4059621488         7.1690734167
 11   8        19.7717708673       775.5147850655     33272.9908607217         6.4059621488         7.1690734167
 11   9        20.0839134698       789.6141915484     33834.5060195838         6.4075926339         7.1697329479
 11  10        20.0839134698       789.6141915484     33834.5060195840         6.4075926339         7.1697329479
 11  11        19.8642197954       783.1417395996     33848.2860997020         6.4260302275         7.1771909545
 12   1        52.5219376467      3046.1899982845    173686.4690025787         7.5833123334         7.6453115663
 12   2        52.5219376467      3046.1899982845    173686.4690025794         7.5833123334         7.6453115663
 12   3        53.8258103813      3084.9452973786    173828.3131999802         7.5385027933         7.6271861074
 12   4        53.8258103813      3084.9452973786    173828.3131999787         7.5385027933         7.6271861074
 12   5        19.7782872420       778.4225655398     33651.4405528916         6.4236732899         7.1762375732
 12   6        19.7782872420       778.4225655398     33651.4405528924         6.4236732899         7.1762375732
 12   7        19.7717708673       775.5147850655     33272.9908607213         6.4059621488         7.1690734167
 12   8        19.7717708673       775.5147850655     33272.9908607213         6.4059621488         7.1690734167
 12   9        20.0839134698       789.6141915484     33834.5060195834         6.4075926339         7.1697329479
 12  10        20.0839134698       789.6141915484     33834.5060195836         6.4075926339         7.1697329479
 12  11        19.8642197954       783.1417395995     33848.2860997016         6.4260302275         7.1771909545
 12  12        19.8642197954       783.1417395995     33848.2860997012         6.4260302275         7.1771909545
 13   1        52.5512741702      3037.1404478432    171937.8380163775         7.5631187055         7.6371432439
 13   2        52.5512741702      3037.1404478432    171937.8380163783         7.5631187055         7.6371432439
 13   3        53.9049957321      3078.4557172753    172204.9502259323         7.5180988543         7.6189327140
 13   4        53.9049957321      3078.4557172753    172204.9502259308         7.5180988543         7.6189327140
 13   5        19.9978473291       782.9726951740     33465.0255320967         6.3969291544         7.1654195704
 13   6        19.9978473291       782.9726951740     33465.0255320975         6.3969291544         7.1654195704
 13   7        20.0371830736       781.8258982460     33159.5833784520         6.3790506287         7.1581877068
 13   8        20.0371830736       781.8258982460     33159.5833784520         6.3790506287         7.1581877068
 13   9        20.3469217077       795.7919531791     33708.1518070263         6.3806746137         7.1588446087
 13  10        20.3469217077       795.7919531791     33708.1518070265         6.3806746137         7.1588446087
 13  11        20.0850267084       787.7379686406     33661.5978442813         6.3992947630         7.1663764591
 13  12        20.0850267084       787.7379686405     33661.5978442809         6.3992947630         7.1663764591
 13  13        20.3555589271       794.1839132042     33546.0661075151         6.3723068229         7.1554598373
 14   1        52.5512741702      3037.1404478431    171937.8380163730         7.5631187055         7.6371432439
 14   2        52.5512741702      3037.1404478432    171937.8380163738         7.5631187055         7.6371432439
 14   3        53.9049957321      3078.4557172753    172204.9502259279         7.5180988543         7.6189327140
 14   4        53.9049957321      3078.4557172752    172204.9502259264         7.5180988543         7.6189327140
 14   5        19.9978473291       782.9726951740     33465.0255320959         6.3969291544         7.1654195704
 14   6        19.9978473291       782.9726951740     33465.0255320967         6.3969291544         7.1654195704
 14   7        20.0371830736       781.8258982460     33159.5833784512         6.3790506287         7.1581877068
 14   8        20.0371830736       781.8258982460     33159.5833784513         6.3790506287         7.1581877068
 14   9        20.3469217077       795.7919531790     33708.1518070255         6.3806746137         7.1588446087
 14  10        20.3469217077       795.7919531790     33708.1518070257         6.3806746137         7.1588446087
 14  11        20.0850267084       787.7379686405     33661.5978442805         6.3992947630         7.1663764591
 14  12        20.0850267084       787.7379686405     33661.5978442801         6.3992947630         7.1663764591
 14  13        20.3555589271       794.1839132041     33546.0661075143         6.3723068229         7.1554598373
 14  14        20.3555589271       794.1839132041     33546.0661075135         6.3723068229         7.1554598373
 15   1        51.8737455122      2998.4409349932    169862.9969328927         7.5646956886         7.6377811335
 15   2        51.8737455122      2998.4409349932    169862.9969328934         7.5646956886         7.6377811335
 15   3        53.2174938284      3039.6625580341    170153.6365126411         7.5196976892         7.6195794428
 15   4        53.2174938284      3039.6625580341    170153.6365126396         7.5196976892         7.6195794428
 15   5        19.7721252889       774.3094054123     33135.3158506054         6.3992724176         7.1663674204
 15   6        19.7721252889       774.3094054124     33135.3158506062         6.3992724176         7.1663674204
 15   7        19.8181183011       773.4530407740     32845.1411710653         6.3814102680         7.1591421809
 15   8        19.8181183011       773.4530407740     32845.1411710654         6.3814102680         7.1591421809
 15   9        20.1234509649       787.2292200647     33386.7944713389         6.3830328452         7.1597985134
 15  10        20.1234509649       787.2292200647     33386.7944713391         6.3830328452         7.1597985134
 15  11        19.8583658161       779.0234238227     33329.9765478644         6.4016359257         7.1673234594
 15  12        19.8583658161       779.0234238226     33329.9765478640         6.4016359257         7.1673234594
 15  13        20.1331549122       785.6842469458     33228.3951488850         6.3746727320         7.1564168476
 15  14        20.1331549122       785.6842469458     33228.3951488843         6.3746727320         7.1564168476
 15  15        19.9143121381       777.3196645915     32915.5340044524         6.3770364469         7.1573729703
 16   1        51.8737455122      2998.4409349932    169862.9969328932         7.5646956886         7.6377811335
 16   2        51.8737455122      2998.4409349932    169862.9969328939         7.5646956886         7.6377811335
 16   3        53.2174938284      3039.6625580341    170153.6365126416         7.5196976892         7.6195794428
 16   4        53.2174938284      3039.6625580341    170153.6365126402         7.5196976892         7.6195794428
 16   5        19.7721252889       774.3094054123     33135.3158506055         6.3992724176         7.1663674204
 16   6        19.7721252889       774.3094054124     33135.3158506062         6.3992724176         7.1663674204
 16   7        19.8181183011       773.4530407740     32845.1411710654         6.3814102680         7.1591421809
 16   8        19.8181183011       773.4530407740     32845.1411710654         6.3814102680         7.1591421809
 16   9        20.1234509649       787.2292200647     33386.7944713390         6.3830328452         7.1597985134
 16  10        20.1234509649       787.2292200647     33386.7944713392         6.3830328452         7.1597985134
 16  11        19.8583658161       779.0234238227     33329.9765478644         6.4016359257         7.1673234594
 16  12        19.8583658161       779.0234238227     33329.9765478641         6.4016359257         7.1673234594
 16  13        20.1331549122       785.6842469458     33228.3951488851         6.3746727320         7.1564168476
 16  14        20.1331549122       785.6842469458     33228.3951488843         6.3746727320         7.1564168476
 16  15        19.9143121381       777.3196645915     32915.5340044525         6.3770364469         7.1573729703
 16  16        19.9143121381       777.3196645915     32915.5340044525         6.3770364469         7.1573729703
 17   1        51.8451114101      2999.0527512216    170163.7925412677         7.5690820909         7.6395554332
 17   2        51.8451114101      2999.0527512217    170163.7925412684         7.5690820909         7.6395554332
 17   3        53.1807021128      3039.8864415516    170437.7519871332         7.5241303938         7.6213724718
 17   4        53.1807021128      3039.8864415516    170437.7519871317         7.5241303938         7.6213724718
 17   5        19.7293810814       773.4981443246     33183.8119389770         6.4051103623         7.1687288690
 17   6        19.7293810814       773.4981443246     33183.8119389778         6.4051103623         7.1687288690
 17   7        19.7682454289       772.3709963876     32882.6350927735         6.3872850633         7.1615185356
 17   8        19.7682454289       772.3709963876     32882.6350927735         6.3872850633         7.1615185356
 17   9        20.0738186378       786.1653378941     33426.6078808598         6.3889088878         7.1621753726
 17  10        20.0738186378       786.1653378941     33426.6078808599         6.3889088878         7.1621753726
 17  11        19.8153904594       778.2039786022     33378.6093333963         6.4074718489         7.1696840904
 17  12        19.8153904594       778.2039786021     33378.6093333959         6.4074718489         7.1696840904
 17  13        20.0823491935       784.5796913836     33266.5973540831         6.3805642438         7.1587999641
 17  14        20.0823491935       784.5796913836     33266.5973540823         6.3805642438         7.1587999641
 17  15        19.8629392820       776.1829300071     32951.3563273837         6.3829225308         7.1597538912
 17  16        19.8629392820       776.1829300071     32951.3563273838         6.3829225308         7.1597538912
 17  17        19.8128065184       775.0902160791     32988.6896055927         6.3887963770         7.1621298620
 18   1        51.8451114101      2999.0527512216    170163.7925412659         7.5690820909         7.6395554332
 18   2        51.8451114101      2999.0527512216    170163.7925412667         7.5690820909         7.6395554332
 18   3        53.1807021128      3039.8864415515    170437.7519871314         7.5241303938         7.6213724718
 18   4        53.1807021128      3039.8864415515    170437.7519871300         7.5241303938         7.6213724718
 18   5        19.7293810814       773.4981443246     33183.8119389767         6.4051103623         7.1687288690
 18   6        19.7293810814       773.4981443246     33183.8119389775         6.4051103623         7.1687288690
 18   7        19.7682454289       772.3709963876     32882.6350927732         6.3872850633         7.1615185356
 18   8        19.7682454289       772.3709963875     32882.6350927732         6.3872850633         7.1615185356
 18   9        20.0738186378       786.1653378941     33426.6078808595         6.3889088878         7.1621753726
 18  10        20.0738186378       786.1653378941     33426.6078808596         6.3889088878         7.1621753726
 18  11        19.8153904594       778.2039786021     33378.6093333960         6.4074718489         7.1696840904
 18  12        19.8153904594       778.2039786021     33378.6093333956         6.4074718489         7.1696840904
 18  13        20.0823491935       784.5796913836     33266.5973540828         6.3805642438         7.1587999641
 18  14        20.0823491935       784.5796913836     33266.5973540820         6.3805642438         7.1587999641
 18  15        19.8629392820       776.1829300071     32951.3563273834         6.3829225308         7.1597538912
 18  16        19.8629392820       776.1829300071     32951.3563273835         6.3829225308         7.1597538912
 18  17        19.8128065184       775.0902160791     32988.6896055924         6.3887963770         7.1621298620
 18  18        19.8128065184       775.0902160791     32988.6896055921         6.3887963770         7.1621298620
 19   1        52.6589527791      3049.0258860963    172997.8873419070         7.5708713775         7.6402791997
 19   2        52.6589527791      3049.0258860963    172997.8873419078         7.5708713775         7.6402791997
 19   3        54.0076228161      3090.1239342984    173251.2495163587         7.5259106933         7.6220926029
 19   4        54.0076228161      3090.1239342983    173251.2495163572         7.5259106933         7.6220926029
 19   5        20.0053372020       785.4170656476     33671.5829054346         6.4061845246         7.1691633677
 19   6        20.0053372020       785.4170656476     33671.5829054354         6.4061845246         7.1691633677
 19   7        20.0373105657       783.9854314501     33353.5887343905         6.3883576657         7.1619524033
 19   8        20.0373105657       783.9854314501     33353.5887343906         6.3883576657         7.1619524033
 19   9        20.3481097425       798.0263966449     33907.2977671280         6.3899919626         7.1626134764
 19  10        20.3481097425       798.0263966449     33907.2977671282         6.3899919626         7.1626134764
 19  11        20.0925022754       790.1916548173     33869.2669821026         6.4085525463         7.1701212325
 19  12        20.0925022754       790.1916548173     33869.2669821022         6.4085525463         7.1701212325
 19  13        20.3555415229       796.3720113195     33742.8966518127         6.3816423563         7.1592360606
 19  14        20.3555415229       796.3720113195     33742.8966518119         6.3816423563         7.1592360606
 19  15        20.1319635125       787.8024896923     33421.1614564614         6.3839997033         7.1601896074
 19  16        20.1319635125       787.8024896923     33421.1614564614         6.3839997033         7.1601896074
 19  17        20.0823226546       786.7380532096     33460.9821082092         6.3898740113         7.1625657651
 19  18        20.0823226546       786.7380532095     33460.9821082089         6.3898740113         7.1625657651
 19  19        20.3567431395       798.6079286496     33942.1987426478         6.3909577695         7.1630041452
 20   1        52.6589527791      3049.0258860963    172997.8873419073         7.5708713775         7.6402791997
 20   2        52.6589527791      3049.0258860963    172997.8873419081         7.5708713775         7.6402791997
 20   3        54.0076228161      3090.1239342984    173251.2495163589         7.5259106933         7.6220926029
 20   4        54.0076228161      3090.1239342983    173251.2495163575         7.5259106933         7.6220926029
 20   5        20.0053372020       785.4170656476     33671.5829054347         6.4061845246         7.1691633677
 20   6        20.0053372020       785.4170656476     33671.5829054355         6.4061845246         7.1691633677
 20   7        20.0373105657       783.9854314501     33353.5887343907         6.3883576657         7.1619524033
 20   8        20.0373105657       783.9854314500     33353.5887343908         6.3883576657         7.1619524033
 20   9        20.3481097425       798.0263966449     33907.2977671282         6.3899919626         7.1626134764
 20  10        20.3481097425       798.0263966449     33907.2977671284         6.3899919626         7.1626134764
 20  11        20.0925022754       790.1916548173     33869.2669821028         6.4085525463         7.1701212325
 20  12        20.0925022754       790.1916548173     33869.2669821024         6.4085525463         7.1701212325
 20  13        20.3555415229       796.3720113195     33742.8966518128         6.3816423563         7.1592360606
 20  14        20.3555415229       796.3720113195     33742.8966518121         6.3816423563         7.1592360606
 20  15        20.1319635125       787.8024896923     33421.1614564615         6.3839997033         7.1601896074
 20  16        20.1319635125       787.8024896923     33421.1614564616         6.3839997033         7.1601896074
 20  17        20.0823226546       786.7380532096     33460.9821082094         6.3898740113         7.1625657651
 20  18        20.0823226546       786.7380532095     33460.9821082091         6.3898740113         7.1625657651
 20  19        20.3567431395       798.6079286496     33942.1987426480         6.3909577695         7.1630041452
 20  20        20.3567431395       798.6079286496     33942.1987426482         6.3909577695         7.1630041452
 21   1        52.5282884886      3046.7708312275    173721.4894211795         7.5834656441         7.6453735805
 21   2        52.5282884886      3046.7708312276    173721.4894211802         7.5834656441         7.6453735805
 21   3        53.8326629925      3085.5558151673    173864.5317300426         7.5386558345         7.6272480125
 21   4        53.8326629925      3085.5558151673    173864.5317300412         7.5386558345         7.6272480125
 21   5        19.7821256851       778.6536619541     33660.4662142703         6.4237890216         7.1762843867
 21   6        19.7821256851       778.6536619541     33660.4662142711         6.4237890216         7.1762843867
 21   7        19.7759227034       775.7576339851     33282.4517903882         6.4060780425         7.1691202957
 21   8        19.7759227034       775.7576339851     33282.4517903883         6.4060780425         7.1691202957
 21   9        20.0880857600       789.8594911473     33844.0619671957         6.4077092399         7.1697801150
 21  10        20.0880857600       789.8594911473     33844.0619671958         6.4077092399         7.1697801150
 21  11        19.8680769270       783.3741788757     33857.3743291403         6.4261463835         7.1772379396
 21  12        19.8680769270       783.3741788757     33857.3743291399         6.4261463835         7.1772379396
 21  13        20.0892505787       787.9848970880     33671.1895748358         6.3994111477         7.1664235367
 21  14        20.0892505787       787.9848970880     33671.1895748350         6.3994111477         7.1664235367
 21  15        19.8625919677       779.2695621057     33339.5553433810         6.4017522080         7.1673704956
 21  16        19.8625919677       779.2695621057     33339.5553433811         6.4017522080         7.1673704956
 21  17        19.8195580241       778.4478267233     33388.1163548062         6.4075880736         7.1697311033
 21  18        19.8195580241       778.4478267233     33388.1163548059         6.4075880736         7.1697311033
 21  19        20.0966757927       790.4370872139     33878.8321034081         6.4086691857         7.1701684131
 21  20        20.0966757927       790.4370872139     33878.8321034082         6.4086691857         7.1701684131
 21  21        19.8719370315       783.6067665891     33866.4692089611         6.4262625670         7.1772849358
 22   1        52.5282884886      3046.7708312275    173721.4894211798         7.5834656441         7.6453735805
 22   2        52.5282884886      3046.7708312276    173721.4894211805         7.5834656441         7.6453735805
 22   3        53.8326629925      3085.5558151673    173864.5317300429         7.5386558345         7.6272480125
 22   4        53.8326629925      3085.5558151673    173864.5317300415         7.5386558345         7.6272480125
 22   5        19.7821256851       778.6536619541     33660.4662142704         6.4237890216         7.1762843867
 22   6        19.7821256851       778.6536619541     33660.4662142712         6.4237890216         7.1762843867
 22   7        19.7759227034       775.7576339851     33282.4517903883         6.4060780425         7.1691202957
 22   8        19.7759227034       775.7576339851     33282.4517903883         6.4060780425         7.1691202957
 22   9        20.0880857600       789.8594911473     33844.0619671957         6.4077092399         7.1697801150
 22  10        20.0880857600       789.8594911473     33844.0619671959         6.4077092399         7.1697801150
 22  11        19.8680769270       783.3741788757     33857.3743291404         6.4261463835         7.1772379396
 22  12        19.8680769270       783.3741788757     33857.3743291400         6.4261463835         7.1772379396
 22  13        20.0892505787       787.9848970880     33671.1895748359         6.3994111477         7.1664235367
 22  14        20.0892505787       787.9848970880     33671.1895748351         6.3994111477         7.1664235367
 22  15        19.8625919677       779.2695621057     33339.5553433811         6.4017522080         7.1673704956
 22  16        19.8625919677       779.2695621057     33339.5553433811         6.4017522080         7.1673704956
 22  17        19.8195580241       778.4478267233     33388.1163548062         6.4075880736         7.1697311033
 22  18        19.8195580241       778.4478267233     33388.1163548059         6.4075880736         7.1697311033
 22  19        20.0966757927       790.4370872139     33878.8321034081         6.4086691857         7.1701684131
 22  20        20.0966757927       790.4370872139     33878.8321034083         6.4086691857         7.1701684131
 22  21        19.8719370315       783.6067665891     33866.4692089612         6.4262625670         7.1772849358
 22  22        19.8719370315       783.6067665891     33866.4692089613         6.4262625670         7.1772849358
 23   1        52.3069113956      3029.0495820649    172582.7641696201         7.5790011762         7.6435677033
 23   2        52.3069113956      3029.0495820649    172582.7641696208         7.5790011762         7.6435677033
 23   3        53.6058959327      3067.5560456464    172721.8481821744         7.5341809559         7.6254379242
 23   4        53.6058959327      3067.5560456464    172721.8481821730         7.5341809559         7.6254379242
 23   5        19.6992061300       773.5516660113     33430.2112092218         6.4195656943         7.1745760508
 23   6        19.6992061300       773.5516660113     33430.2112092226         6.4195656943         7.1745760508
 23   7        19.6931272199       770.6721914471     33054.4338234371         6.4018392109         7.1674056883
 23   8        19.6931272199       770.6721914471     33054.4338234371         6.4018392109         7.1674056883
 23   9        20.0039692952       784.6854509252     33611.9473514503         6.4034561502         7.1680597403
 23  10        20.0039692952       784.6854509252     33611.9473514504         6.4034561502         7.1680597403
 23  11        19.7847977220       778.2444342714     33625.6756554164         6.4219154910         7.1755265436
 23  12        19.7847977220       778.2444342714     33625.6756554160         6.4219154910         7.1755265436
 23  13        20.0051452406       782.8192245287     33440.1534482144         6.3951571712         7.1647028032
 23  14        20.0051452406       782.8192245286     33440.1534482136         6.3951571712         7.1647028032
 23  15        19.7794511225       774.1620476235     33110.9195175890         6.3975020410         7.1656513031
 23  16        19.7794511225       774.1620476235     33110.9195175891         6.3975020410         7.1656513031
 23  17        19.7365819008       773.3471468060     33159.2940620885         6.4033431280         7.1680140228
 23  18        19.7365819008       773.3471468060     33159.2940620882         6.4033431280         7.1680140228
 23  19        20.0125231844       785.2598233707     33646.4913443002         6.4044160299         7.1684480116
 23  20        20.0125231844       785.2598233707     33646.4913443004         6.4044160299         7.1684480116
 23  21        19.7886423397       778.4757156540     33634.7022042952         6.4220311608         7.1755733320
 23  22        19.7886423397       778.4757156539     33634.7022042953         6.4220311608         7.1755733320
 23  23        19.7056969997       773.3739201394     33404.6037714319         6.4178079824         7.1738650564
 24   1        52.3069113956      3029.0495820648    172582.7641696168         7.5790011762         7.6435677033
 24   2        52.3069113956      3029.0495820649    172582.7641696175         7.5790011762         7.6435677033
 24   3        53.6058959327      3067.5560456464    172721.8481821711         7.5341809559         7.6254379242
 24   4        53.6058959327      3067.5560456463    172721.8481821697         7.5341809559         7.6254379242
 24   5        19.6992061300       773.5516660113     33430.2112092212         6.4195656943         7.1745760508
 24   6        19.6992061300       773.5516660113     33430.2112092221         6.4195656943         7.1745760508
 24   7        19.6931272199       770.6721914470     33054.4338234366         6.4018392109         7.1674056883
 24   8        19.6931272199       770.6721914470     33054.4338234366         6.4018392109         7.1674056883
 24   9        20.0039692952       784.6854509252     33611.9473514497         6.4034561502         7.1680597403
 24  10        20.0039692952       784.6854509252     33611.9473514499         6.4034561502         7.1680597403
 24  11        19.7847977220       778.2444342714     33625.6756554158         6.4219154910         7.1755265436
 24  12        19.7847977220       778.2444342714     33625.6756554154         6.4219154910         7.1755265436
 24  13        20.0051452406       782.8192245286     33440.1534482139         6.3951571712         7.1647028032
[...]
  Evdw   =  -1.647409378070E-01 Hartree,  -3.294818756139E-01 Ry
  Evdw6 =  -7.419856822952E-02 Hartree,  -1.483971364590E-01 Ry
  Evdw8 =  -4.966286755840E-02 Hartree,  -9.932573511679E-02 Ry
  Evdw10 =  -4.087950201904E-02 Hartree,  -8.175900403808E-02 Ry
  Evdw9  =   0.000000000000E+00 Hartree,   0.000000000000E+00 Ry
  Fvdw (01) =   3.929725116445E-05  -4.286176496950E-04  -2.536188559671E-04  Hartree/bohr
            =   7.859450232890E-05  -8.572352993900E-04  -5.072377119342E-04  Ry/bohr
  Fvdw (02) =   3.929725116446E-05   4.286176496950E-04  -2.536188559671E-04  Hartree/bohr
            =   7.859450232892E-05   8.572352993900E-04  -5.072377119342E-04  Ry/bohr
  Fvdw (03) =   1.614268538786E-04   6.077821768800E-04  -6.454138582456E-04  Hartree/bohr
            =   3.228537077573E-04   1.215564353760E-03  -1.290827716491E-03  Ry/bohr
  Fvdw (04) =   1.614268538787E-04  -6.077821768800E-04  -6.454138582456E-04  Hartree/bohr
            =   3.228537077573E-04  -1.215564353760E-03  -1.290827716491E-03  Ry/bohr
  Fvdw (05) =   3.298773286203E-04  -4.825346666302E-06   1.868042158279E-04  Hartree/bohr
            =   6.597546572405E-04  -9.650693332604E-06   3.736084316557E-04  Ry/bohr
  Fvdw (06) =   3.298773286203E-04   4.825346666302E-06   1.868042158279E-04  Hartree/bohr
            =   6.597546572405E-04   9.650693332604E-06   3.736084316558E-04  Ry/bohr
  Fvdw (07) =  -1.761389856082E-04   1.975386664186E-04   1.369771844631E-05  Hartree/bohr
            =  -3.522779712164E-04   3.950773328371E-04   2.739543689262E-05  Ry/bohr
  Fvdw (08) =  -1.761389856082E-04  -1.975386664186E-04   1.369771844631E-05  Hartree/bohr
            =  -3.522779712164E-04  -3.950773328371E-04   2.739543689261E-05  Ry/bohr
  Fvdw (09) =  -3.279849587767E-04   1.779973599725E-04  -1.842577076037E-04  Hartree/bohr
            =  -6.559699175533E-04   3.559947199450E-04  -3.685154152074E-04  Ry/bohr
  Fvdw (10) =  -3.279849587767E-04  -1.779973599725E-04  -1.842577076037E-04  Hartree/bohr
            =  -6.559699175534E-04  -3.559947199450E-04  -3.685154152075E-04  Ry/bohr
  Fvdw (11) =  -2.278167855307E-04   1.248477395486E-04  -1.206841044282E-04  Hartree/bohr
            =  -4.556335710615E-04   2.496954790972E-04  -2.413682088564E-04  Ry/bohr
  Fvdw (12) =  -2.278167855307E-04  -1.248477395486E-04  -1.206841044282E-04  Hartree/bohr
            =  -4.556335710615E-04  -2.496954790972E-04  -2.413682088564E-04  Ry/bohr
  Fvdw (13) =   4.583976978783E-04  -1.182102575475E-04   2.806724020140E-04  Hartree/bohr
            =   9.167953957566E-04  -2.364205150950E-04   5.613448040281E-04  Ry/bohr
  Fvdw (14) =   4.583976978783E-04   1.182102575475E-04   2.806724020140E-04  Hartree/bohr
            =   9.167953957566E-04   2.364205150950E-04   5.613448040281E-04  Ry/bohr
  Fvdw (15) =   1.168672344233E-04   8.933995551186E-05   2.652721266646E-04  Hartree/bohr
            =   2.337344688466E-04   1.786799110237E-04   5.305442533292E-04  Ry/bohr
  Fvdw (16) =   1.168672344233E-04  -8.933995551187E-05   2.652721266646E-04  Hartree/bohr
            =   2.337344688466E-04  -1.786799110237E-04   5.305442533292E-04  Ry/bohr
  Fvdw (17) =   1.284724093189E-04   2.363439587032E-04   1.486863462355E-04  Hartree/bohr
            =   2.569448186377E-04   4.726879174064E-04   2.973726924710E-04  Ry/bohr
  Fvdw (18) =   1.284724093189E-04  -2.363439587032E-04   1.486863462355E-04  Hartree/bohr
            =   2.569448186377E-04  -4.726879174064E-04   2.973726924710E-04  Ry/bohr
  Fvdw (19) =   3.741837028935E-04   2.538319080751E-04  -9.300266542251E-06  Hartree/bohr
            =   7.483674057870E-04   5.076638161502E-04  -1.860053308450E-05  Ry/bohr
  Fvdw (20) =   3.741837028935E-04  -2.538319080751E-04  -9.300266542248E-06  Hartree/bohr
            =   7.483674057870E-04  -5.076638161502E-04  -1.860053308450E-05  Ry/bohr
  Fvdw (21) =   2.755084798893E-04   1.323073439073E-04   3.212062912839E-06  Hartree/bohr
            =   5.510169597786E-04   2.646146878146E-04   6.424125825677E-06  Ry/bohr
  Fvdw (22) =   2.755084798893E-04  -1.323073439073E-04   3.212062912847E-06  Hartree/bohr
            =   5.510169597786E-04  -2.646146878146E-04   6.424125825693E-06  Ry/bohr
  Fvdw (23) =  -3.683515971757E-04   9.762436530350E-06   1.333509683452E-05  Hartree/bohr
            =  -7.367031943514E-04   1.952487306070E-05   2.667019366905E-05  Ry/bohr
  Fvdw (24) =  -3.683515971757E-04  -9.762436530346E-06   1.333509683452E-05  Hartree/bohr
            =  -7.367031943514E-04  -1.952487306069E-05   2.667019366905E-05  Ry/bohr
  Fvdw (25) =  -5.232884175693E-04  -8.880057440506E-05   1.747224585336E-05  Hartree/bohr
            =  -1.046576835139E-03  -1.776011488101E-04   3.494449170672E-05  Ry/bohr
  Fvdw (26) =  -5.232884175693E-04   8.880057440506E-05   1.747224585336E-05  Hartree/bohr
            =  -1.046576835139E-03   1.776011488101E-04   3.494449170672E-05  Ry/bohr
  Fvdw (27) =  -2.173264871383E-04   1.018065967526E-04   7.295060771364E-05  Hartree/bohr
            =  -4.346529742767E-04   2.036131935053E-04   1.459012154273E-04  Ry/bohr
  Fvdw (28) =  -2.173264871383E-04  -1.018065967526E-04   7.295060771364E-05  Hartree/bohr
            =  -4.346529742767E-04  -2.036131935053E-04   1.459012154273E-04  Ry/bohr
  Fvdw (29) =   1.283420006407E-04  -6.890718964891E-05   1.039249091854E-04  Hartree/bohr
            =   2.566840012815E-04  -1.378143792978E-04   2.078498183708E-04  Ry/bohr
  Fvdw (30) =   1.283420006407E-04   6.890718964891E-05   1.039249091854E-04  Hartree/bohr
            =   2.566840012815E-04   1.378143792978E-04   2.078498183708E-04  Ry/bohr
  Fvdw (31) =   7.178868602280E-06   4.067310578744E-05   3.846235814290E-05  Hartree/bohr
            =   1.435773720456E-05   8.134621157489E-05   7.692471628579E-05  Ry/bohr
  Fvdw (32) =   7.178868602282E-06  -4.067310578744E-05   3.846235814289E-05  Hartree/bohr
            =   1.435773720456E-05  -8.134621157488E-05   7.692471628579E-05  Ry/bohr
  Fvdw (33) =   3.314558068073E-05   5.490445570076E-06   6.180596139933E-05  Hartree/bohr
            =   6.629116136146E-05   1.098089114015E-05   1.236119227987E-04  Ry/bohr
  Fvdw (34) =   3.314558068073E-05  -5.490445570076E-06   6.180596139933E-05  Hartree/bohr
            =   6.629116136146E-05  -1.098089114015E-05   1.236119227987E-04  Ry/bohr
  Fvdw (35) =   1.200144239623E-04   1.658774920890E-05   1.396514918824E-05  Hartree/bohr
            =   2.400288479247E-04   3.317549841780E-05   2.793029837648E-05  Ry/bohr
  Fvdw (36) =   1.200144239623E-04  -1.658774920890E-05   1.396514918824E-05  Hartree/bohr
            =   2.400288479247E-04  -3.317549841781E-05   2.793029837649E-05  Ry/bohr
  Fvdw (37) =  -1.652662690621E-04  -7.114004382049E-05   4.373314957018E-05  Hartree/bohr
            =  -3.305325381243E-04  -1.422800876410E-04   8.746629914037E-05  Ry/bohr
  Fvdw (38) =  -1.652662690621E-04   7.114004382049E-05   4.373314957019E-05  Hartree/bohr
            =  -3.305325381243E-04   1.422800876410E-04   8.746629914037E-05  Ry/bohr
  Fvdw (39) =  -5.033075804390E-06   3.189749209329E-05   3.019057574661E-05  Hartree/bohr
            =  -1.006615160878E-05   6.379498418658E-05   6.038115149322E-05  Ry/bohr
  Fvdw (40) =  -5.033075804391E-06  -3.189749209329E-05   3.019057574661E-05  Hartree/bohr
            =  -1.006615160878E-05  -6.379498418658E-05   6.038115149321E-05  Ry/bohr
  Fvdw (41) =  -3.998969906994E-05   1.493743262271E-05   1.706640675973E-05  Hartree/bohr
            =  -7.997939813989E-05   2.987486524542E-05   3.413281351946E-05  Ry/bohr
  Fvdw (42) =  -3.998969906994E-05  -1.493743262271E-05   1.706640675973E-05  Hartree/bohr
            =  -7.997939813988E-05  -2.987486524542E-05   3.413281351946E-05  Ry/bohr
  Fvdw (43) =  -1.348868904828E-04  -2.149528915004E-06  -4.901129290997E-05  Hartree/bohr
            =  -2.697737809655E-04  -4.299057830008E-06  -9.802258581994E-05  Ry/bohr
  Fvdw (44) =  -1.348868904828E-04   2.149528915004E-06  -4.901129290997E-05  Hartree/bohr
            =  -2.697737809655E-04   4.299057830008E-06  -9.802258581994E-05  Ry/bohr
  Fvdw (45) =   1.337133426536E-05  -3.225791432971E-05  -4.896524679820E-05  Hartree/bohr
            =   2.674266853072E-05  -6.451582865943E-05  -9.793049359640E-05  Ry/bohr
  Fvdw (46) =   1.337133426536E-05   3.225791432971E-05  -4.896524679819E-05  Hartree/bohr
            =   2.674266853071E-05   6.451582865942E-05  -9.793049359639E-05  Ry/bohr
  sigma_vdw (Hy/bohr**3) =  -4.507578309900E-05  -1.970039383377E-21   1.400143921139E-06  
                            -1.970039383377E-21  -4.455926785109E-05  -4.408580159977E-21  
                             1.400143921139E-06  -4.408580159977E-21  -4.905315908487E-05  
  sigma_vdw (Ry/bohr**3) =  -9.015156619800E-05  -3.940078766755E-21   2.800287842277E-06  
                            -3.940078766755E-21  -8.911853570217E-05  -8.817160319954E-21  
                             2.800287842277E-06  -8.817160319954E-21  -9.810631816973E-05  
  sigma_vdw (GPa) =  -1.326175101542E+00  -5.796054998210E-17   4.119364943058E-02  
                     -5.796054998210E-17  -1.310978700853E+00  -1.297048845157E-16  
                      4.119364943058E-02  -1.297048845157E-16  -1.443193523392E+00  
 
 TIME (final):      324.4

!    total energy              =   -1943.26951527 Ry
     Harris-Foulkes estimate   =   -1943.26951527 Ry
     estimated scf accuracy    <          7.9E-09 Ry

     total all-electron energy =    -54009.436828 Ry

     The total energy is the sum of the following terms:

     one-electron contribution =    -279.93433463 Ry
     hartree contribution      =     198.94030250 Ry
     xc contribution           =    -165.52822159 Ry
     ewald contribution        =    -188.11650177 Ry
     Dispersion XDM Correction =      -0.32948188 Ry
     Uncorrected (XDM) energy  =   -1942.94003339 Ry
     one-center paw contrib.   =   -1508.30127790 Ry

     convergence has been achieved in  52 iterations

     Forces acting on atoms (Ry/au):

     atom    1 type  4   force =     0.00014056    0.00018850   -0.00052675
     atom    2 type  4   force =     0.00014056   -0.00018850   -0.00052675
     atom    3 type  4   force =     0.00039557    0.00031371   -0.00036892
     atom    4 type  4   force =     0.00039557   -0.00031371   -0.00036892
     atom    5 type  1   force =     0.00038029   -0.00037085    0.00032596
     atom    6 type  1   force =     0.00038029    0.00037085    0.00032596
     atom    7 type  1   force =     0.00024631    0.00015953    0.00015935
     atom    8 type  1   force =     0.00024631   -0.00015953    0.00015935
     atom    9 type  1   force =    -0.00016901    0.00013232   -0.00006493
     atom   10 type  1   force =    -0.00016901   -0.00013232   -0.00006493
     atom   11 type  1   force =    -0.00001329    0.00026202   -0.00017496
     atom   12 type  1   force =    -0.00001329   -0.00026202   -0.00017496
     atom   13 type  1   force =     0.00023766    0.00025410   -0.00009234
     atom   14 type  1   force =     0.00023766   -0.00025410   -0.00009234
     atom   15 type  1   force =    -0.00019840   -0.00052274    0.00032360
     atom   16 type  1   force =    -0.00019840    0.00052274    0.00032360
     atom   17 type  1   force =    -0.00014330    0.00033803   -0.00015458
     atom   18 type  1   force =    -0.00014330   -0.00033803   -0.00015458
     atom   19 type  1   force =     0.00022985   -0.00009199    0.00017186
     atom   20 type  1   force =     0.00022985    0.00009199    0.00017186
     atom   21 type  1   force =     0.00019648    0.00005692    0.00001804
     atom   22 type  1   force =     0.00019648   -0.00005692    0.00001804
     atom   23 type  1   force =    -0.00018381    0.00017388   -0.00005750
     atom   24 type  1   force =    -0.00018381   -0.00017388   -0.00005750
     atom   25 type  1   force =    -0.00006025    0.00020093    0.00021876
     atom   26 type  1   force =    -0.00006025   -0.00020093    0.00021876
     atom   27 type  1   force =    -0.00027528    0.00001486    0.00020974
     atom   28 type  1   force =    -0.00027528   -0.00001486    0.00020974
     atom   29 type  2   force =    -0.00019779   -0.00007306    0.00006690
     atom   30 type  2   force =    -0.00019779    0.00007306    0.00006690
     atom   31 type  2   force =    -0.00057433   -0.00083041   -0.00015986
     atom   32 type  2   force =    -0.00057433    0.00083041   -0.00015986
     atom   33 type  2   force =    -0.00055770   -0.00008763   -0.00000753
     atom   34 type  2   force =    -0.00055770    0.00008763   -0.00000753
     atom   35 type  2   force =     0.00010803    0.00063969   -0.00006286
     atom   36 type  2   force =     0.00010803   -0.00063969   -0.00006286
     atom   37 type  2   force =     0.00007668   -0.00000275    0.00042205
     atom   38 type  2   force =     0.00007668    0.00000275    0.00042205
     atom   39 type  2   force =     0.00008501   -0.00053157    0.00014770
     atom   40 type  2   force =     0.00008501    0.00053157    0.00014770
     atom   41 type  2   force =     0.00035661   -0.00001312   -0.00003566
     atom   42 type  2   force =     0.00035661    0.00001312   -0.00003566
     atom   43 type  2   force =     0.00001002    0.00016344   -0.00001030
     atom   44 type  2   force =     0.00001002   -0.00016344   -0.00001030
     atom   45 type  3   force =    -0.00008990    0.00006249   -0.00034778
     atom   46 type  3   force =    -0.00008990   -0.00006249   -0.00034778

     Total force =     0.003198     Total SCF correction =     0.000151

     Total XDM Dispersion Force =     0.004830

     XDM Dispersion forces acting on atoms:
     atom    1 type  4   force =     0.00007859   -0.00085724   -0.00050724
     atom    2 type  4   force =     0.00007859    0.00085724   -0.00050724
     atom    3 type  4   force =     0.00032285    0.00121556   -0.00129083
     atom    4 type  4   force =     0.00032285   -0.00121556   -0.00129083
     atom    5 type  1   force =     0.00065975   -0.00000965    0.00037361
     atom    6 type  1   force =     0.00065975    0.00000965    0.00037361
     atom    7 type  1   force =    -0.00035228    0.00039508    0.00002740
     atom    8 type  1   force =    -0.00035228   -0.00039508    0.00002740
     atom    9 type  1   force =    -0.00065597    0.00035599   -0.00036852
     atom   10 type  1   force =    -0.00065597   -0.00035599   -0.00036852
     atom   11 type  1   force =    -0.00045563    0.00024970   -0.00024137
     atom   12 type  1   force =    -0.00045563   -0.00024970   -0.00024137
     atom   13 type  1   force =     0.00091680   -0.00023642    0.00056134
     atom   14 type  1   force =     0.00091680    0.00023642    0.00056134
     atom   15 type  1   force =     0.00023373    0.00017868    0.00053054
     atom   16 type  1   force =     0.00023373   -0.00017868    0.00053054
     atom   17 type  1   force =     0.00025694    0.00047269    0.00029737
     atom   18 type  1   force =     0.00025694   -0.00047269    0.00029737
     atom   19 type  1   force =     0.00074837    0.00050766   -0.00001860
     atom   20 type  1   force =     0.00074837   -0.00050766   -0.00001860
     atom   21 type  1   force =     0.00055102    0.00026461    0.00000642
     atom   22 type  1   force =     0.00055102   -0.00026461    0.00000642
     atom   23 type  1   force =    -0.00073670    0.00001952    0.00002667
     atom   24 type  1   force =    -0.00073670   -0.00001952    0.00002667
     atom   25 type  1   force =    -0.00104658   -0.00017760    0.00003494
     atom   26 type  1   force =    -0.00104658    0.00017760    0.00003494
     atom   27 type  1   force =    -0.00043465    0.00020361    0.00014590
     atom   28 type  1   force =    -0.00043465   -0.00020361    0.00014590
     atom   29 type  2   force =     0.00025668   -0.00013781    0.00020785
     atom   30 type  2   force =     0.00025668    0.00013781    0.00020785
     atom   31 type  2   force =     0.00001436    0.00008135    0.00007692
     atom   32 type  2   force =     0.00001436   -0.00008135    0.00007692
     atom   33 type  2   force =     0.00006629    0.00001098    0.00012361
     atom   34 type  2   force =     0.00006629   -0.00001098    0.00012361
     atom   35 type  2   force =     0.00024003    0.00003318    0.00002793
     atom   36 type  2   force =     0.00024003   -0.00003318    0.00002793
     atom   37 type  2   force =    -0.00033053   -0.00014228    0.00008747
     atom   38 type  2   force =    -0.00033053    0.00014228    0.00008747
     atom   39 type  2   force =    -0.00001007    0.00006379    0.00006038
     atom   40 type  2   force =    -0.00001007   -0.00006379    0.00006038
     atom   41 type  2   force =    -0.00007998    0.00002987    0.00003413
     atom   42 type  2   force =    -0.00007998   -0.00002987    0.00003413
     atom   43 type  2   force =    -0.00026977   -0.00000430   -0.00009802
     atom   44 type  2   force =    -0.00026977    0.00000430   -0.00009802
     atom   45 type  3   force =     0.00002674   -0.00006452   -0.00009793
     atom   46 type  3   force =     0.00002674    0.00006452   -0.00009793


     entering subroutine stress ...

          total   stress  (Ry/bohr**3)                   (kbar)     P=    0.01
   0.00000290   0.00000000   0.00000089          0.43      0.00      0.13
   0.00000000  -0.00000012   0.00000000          0.00     -0.02      0.00
   0.00000089   0.00000000  -0.00000263          0.13      0.00     -0.39


     Writing output data file epxars_2.save
 
     init_run     :     54.33s CPU     54.48s WALL (       2 calls)
     electrons    :   3932.60s CPU   3954.25s WALL (       2 calls)
     forces       :     42.96s CPU     43.02s WALL (       2 calls)
     stress       :     86.39s CPU     86.44s WALL (       2 calls)

     Called by init_run:
     wfcinit      :     15.12s CPU     15.21s WALL (       2 calls)
     potinit      :     15.90s CPU     15.93s WALL (       2 calls)

     Called by electrons:
     c_bands      :   1654.60s CPU   1672.04s WALL (     133 calls)
     sum_band     :   1270.95s CPU   1274.06s WALL (     133 calls)
     v_of_rho     :    134.53s CPU    134.64s WALL (     135 calls)
     newd         :    380.45s CPU    380.61s WALL (     135 calls)
     mix_rho      :     84.61s CPU     84.65s WALL (     133 calls)

     Called by c_bands:
     init_us_2    :      9.83s CPU      9.85s WALL (     544 calls)
     cegterg      :   1630.22s CPU   1644.76s WALL (     266 calls)

     Called by *egterg:
     h_psi        :   1350.59s CPU   1352.17s WALL (    1174 calls)
     s_psi        :     83.96s CPU     83.94s WALL (    1174 calls)
     g_psi        :      4.61s CPU      4.61s WALL (     904 calls)
     cdiaghg      :     19.28s CPU     19.28s WALL (    1170 calls)

     Called by h_psi:
     add_vuspsi   :     84.27s CPU     84.33s WALL (    1174 calls)

     General routines
     calbec       :    120.47s CPU    120.50s WALL (    1448 calls)
     fft          :    135.64s CPU    135.78s WALL (    3965 calls)
     ffts         :      7.13s CPU      7.16s WALL (     536 calls)
     fftw         :   1794.51s CPU   1796.39s WALL (  187318 calls)
     interpolate  :     27.88s CPU     27.91s WALL (     536 calls)
     davcio       :      0.01s CPU      4.55s WALL (     810 calls)
 
     Parallel routines
     fft_scatter  :    228.21s CPU    229.79s WALL (  191819 calls)
 
     PAW routines
     PAW_pot      :     69.97s CPU     69.98s WALL (     135 calls)
     PAW_ddot     :     51.08s CPU     51.09s WALL (    5417 calls)
     PAW_symme    :      0.01s CPU      0.02s WALL (     268 calls)
 
     PWSCF        :     1h 8m CPU        1h 8m WALL

 
   This run was terminated on:  21: 5: 1  15Oct2012            

=------------------------------------------------------------------------------=
   JOB DONE.
=------------------------------------------------------------------------------=
