
     Program PWSCF v.4.3.2      starts on 15Oct2012 at 19:56: 2 

     This program is part of the open-source Quantum ESPRESSO suite
     for quantum simulation of materials; please cite
         "P. Giannozzi et al., J. Phys.:Condens. Matter 21 395502 (2009);
          URL http://www.quantum-espresso.org", 
     in publications or presentations arising from this work. More details at
     http://www.quantum-espresso.org/wiki/index.php/Citing_Quantum-ESPRESSO

     Parallel version (MPI), running on     4 processors
     R & G space division:  proc/pool =    4

     Current dimensions of program PWSCF are:
     Max number of different atomic species (ntypx) = 10
     Max number of k-points (npk) =  40000
     Max angular momentum in pseudopotentials (lmaxx) =  3
     Waiting for input...
     Reading input from stdin
               file c.UPF: wavefunction(s)  2P renormalized
               file h.UPF: wavefunction(s)  1S renormalized
               file s.UPF: wavefunction(s)  3P renormalized

     Subspace diagonalization in iterative solution of the eigenvalue problem:
     a serial algorithm will be used

 
     Parallelization info
     --------------------
     sticks:   dense  smooth     PW     G-vecs:    dense   smooth      PW
     Min        1707    1138    299               119491    65018    8727
     Max        1709    1139    300               119492    65037    8728
     Sum        6833    4555   1199               477967   260101   34911
 

     Title: 
     epxars_2                                                                   


     bravais-lattice index     =            0
     lattice parameter (alat)  =       1.0000  a.u.
     unit-cell volume          =    4143.3537 (a.u.)^3
     number of atoms/cell      =           46
     number of atomic types    =            4
     number of electrons       =       144.00
     number of Kohn-Sham states=           72
     kinetic-energy cutoff     =      60.0000  Ry
     charge density cutoff     =     360.0000  Ry
     convergence threshold     =      1.0E-08
     mixing beta               =       0.7000
     number of iterations used =            8  plain     mixing
     Exchange-correlation      =  NOX  PW   PW86 PBC ( 0 417 4 0)
     EXX-fraction              =        0.00
     nstep                     =           50


     celldm(1)=   1.000000  celldm(2)=   0.000000  celldm(3)=   0.000000
     celldm(4)=   0.000000  celldm(5)=   0.000000  celldm(6)=   0.000000

     crystal axes: (cart. coord. in units of alat)
               a(1) = (  18.244053   0.000000  -0.525332 )  
               a(2) = (   0.000000  13.054547   0.000000 )  
               a(3) = (  -4.230274   0.000000  17.518589 )  

     reciprocal axes: (cart. coord. in units 2 pi/alat)
               b(1) = (  0.055196  0.000000  0.013328 )  
               b(2) = (  0.000000  0.076602  0.000000 )  
               b(3) = (  0.001655  0.000000  0.057482 )  


     PseudoPot. # 1 for  C read from file:
     ./c.UPF
     MD5 check sum: 59d3a4af416b94ce846c69cefa103580
     Pseudo is Projector augmented-wave + core cor, Zval =  4.0
     Generated using "atomic" code by A. Dal Corso  (Quantum ESPRESSO distribution)
     Shape of augmentation charge: BESSEL
     Using radial grid of 1073 points,  4 beta functions with: 
                l(1) =   0
                l(2) =   0
                l(3) =   1
                l(4) =   1
     Q(r) pseudized with 0 coefficients 


     PseudoPot. # 2 for  H read from file:
     ./h.UPF
     MD5 check sum: 465503140a8a8e79e3a70d3488897feb
     Pseudo is Projector augmented-wave, Zval =  1.0
     Generated using "atomic" code by A. Dal Corso  (Quantum ESPRESSO distribution)
     Shape of augmentation charge: PSQ
     Using radial grid of  929 points,  2 beta functions with: 
                l(1) =   0
                l(2) =   0
     Q(r) pseudized with 0 coefficients 


     PseudoPot. # 3 for As read from file:
     ./as.UPF
     MD5 check sum: c4211a47c95e243bf5c6b176bad74a68
     Pseudo is Projector augmented-wave + core cor, Zval =  5.0
     Generated using "atomic" code by A. Dal Corso  (Quantum ESPRESSO distribution)
     Shape of augmentation charge: PSQ
     Using radial grid of 1209 points,  4 beta functions with: 
                l(1) =   0
                l(2) =   0
                l(3) =   1
                l(4) =   1
     Q(r) pseudized with 0 coefficients 


     PseudoPot. # 4 for  S read from file:
     ./s.UPF
     MD5 check sum: f30e8e98a43cb1acb672e04b450f70db
     Pseudo is Projector augmented-wave + core cor, Zval =  6.0
     Generated using "atomic" code by A. Dal Corso  (Quantum ESPRESSO distribution)
     Shape of augmentation charge: PSQ
     Using radial grid of 1151 points,  4 beta functions with: 
                l(1) =   0
                l(2) =   0
                l(3) =   1
                l(4) =   1
     Q(r) pseudized with 0 coefficients 


     atomic species   valence    mass     pseudopotential
        c              4.00    12.01070      C( 1.00)
        h              1.00     1.00794      H( 1.00)
        as             5.00    74.92160     As( 1.00)
        s              6.00    32.06500      S( 1.00)

      2 Sym.Ops. (no inversion)


   Cartesian axes

     site n.     atom                  positions (alat units)
         1           as  tau(   1) = (  -2.0536656  13.5437362   8.6425760  )
         2           as  tau(   2) = (  -4.1688028  -0.4891894  17.4018707  )
         3           as  tau(   3) = (  16.5032171   6.5036261   6.5787152  )
         4           as  tau(   4) = (  14.3880799   6.5509208  15.3380099  )
         5           c   tau(   5) = (  13.1747295   2.6746831   8.8771684  )
         6           c   tau(   6) = (  15.2898667  10.3798637   0.1178736  )
         7           c   tau(   7) = (   3.1989987   6.0558284  13.5252196  )
         8           c   tau(   8) = (   5.3141359   6.9987185   4.7659248  )
         9           c   tau(   9) = (   1.8438014   6.9494749  11.4368562  )
        10           c   tau(  10) = (   3.9589385   6.1050719   2.6775615  )
        11           c   tau(  11) = (   0.3551282   5.2897436  10.0324553  )
        12           c   tau(  12) = (   2.4702653   7.7648032   1.2731605  )
        13           c   tau(  13) = (  11.0237225   1.7250678  10.0695811  )
        14           c   tau(  14) = (  13.1388597  11.3294791   1.3102864  )
        15           c   tau(  15) = (   9.0146751   3.3528871  10.6336132  )
        16           c   tau(  16) = (  11.1298123   9.7016598   1.8743184  )
        17           c   tau(  17) = (   9.1738937   5.9092383  10.0205568  )
        18           c   tau(  18) = (  11.2890309   7.1453085   1.2612621  )
        19           c   tau(  19) = (  11.3245199   6.8573838   8.8041649  )
        20           c   tau(  20) = (  13.4396570   6.1971630   0.0448701  )
        21           c   tau(  21) = (  13.3211960   5.2357598   8.2290638  )
        22           c   tau(  22) = (  11.2060589   7.8187870  16.9883585  )
        23           c   tau(  23) = (   0.2217351   2.7351378  10.7061387  )
        24           c   tau(  24) = (   2.3368722  10.3194091   1.9468440  )
        25           c   tau(  25) = (   1.5782333   1.8361333  12.7808031  )
        26           c   tau(  26) = (   3.6933705  11.2184136   4.0215084  )
        27           c   tau(  27) = (   3.0688773   3.5101323  14.1907644  )
        28           c   tau(  28) = (   5.1840145   9.5444146   5.4314697  )
        29           h   tau(  29) = (  10.9177559  12.7970008  10.6023529  )
        30           h   tau(  30) = (  13.0328931   0.2575461   1.8430581  )
        31           h   tau(  31) = (   7.3234346   2.6260697  11.5451043  )
        32           h   tau(  32) = (   9.4385717  10.4284771   2.7858096  )
        33           h   tau(  33) = (   7.6086292   7.1590880  10.4752667  )
        34           h   tau(  34) = (   9.7237663   5.8954589   1.7159720  )
        35           h   tau(  35) = (  11.4282958   8.8507649   8.3144047  )
        36           h   tau(  36) = (   9.3131586   4.2037820  17.0736994  )
        37           h   tau(  37) = (   1.4588632  12.9124509  13.3275746  )
        38           h   tau(  38) = (   3.5740004   0.1420960   4.5682799  )
        39           h   tau(  39) = (   4.1338832   2.8076008  15.8031568  )
        40           h   tau(  40) = (   6.2490203  10.2469461   7.0438621  )
        41           h   tau(  41) = (   4.3563592   7.3453674  14.6258346  )
        42           h   tau(  42) = (   6.4714963   5.7091794   5.8665399  )
        43           h   tau(  43) = (   1.9461656   8.9385470  10.9307459  )
        44           h   tau(  44) = (   4.0613028   4.1159999   2.1714511  )
        45           s   tau(  45) = (  -1.1962410   2.7335479   5.0420818  )
        46           s   tau(  46) = (  -3.3113782  10.3209990  13.8013766  )

     number of k points=     2
                       cart. coord. in units 2pi/alat
        k(    1) = (   0.0142128   0.0191504   0.0177026), wk =   1.0000000
        k(    2) = (   0.0133852   0.0191504  -0.0110384), wk =   1.0000000

     Dense  grid:   477967 G-vectors     FFT dimensions: ( 120,  80, 120)

     Smooth grid:   260101 G-vectors     FFT dimensions: (  96,  72,  90)

     Largest allocated arrays     est. size (Mb)     dimensions
        Kohn-Sham Wavefunctions         8.94 Mb     (   8141,   72)
        NL pseudopotentials            33.79 Mb     (   8141,  272)
        Each V/rho on FFT grid          4.39 Mb     ( 288000)
        Each G-vector array             0.91 Mb     ( 119492)
        G-vector shells                 0.91 Mb     ( 119492)
     Largest temporary arrays     est. size (Mb)     dimensions
        Auxiliary wavefunctions        35.78 Mb     (   8141,  288)
        Each subspace H/S matrix        1.27 Mb     ( 288, 288)
        Each <psi_i|beta_j> matrix      0.30 Mb     (    272,   72)
        Arrays for rho mixing          35.16 Mb     ( 288000,   8)

     Initial potential from superposition of free atoms

     starting charge  143.99790, renormalised to  144.00000
     Starting wfc are  136 atomic wfcs
     Checking if some PAW data can be deallocated... 

     total cpu time spent up to now is       34.7 secs

     per-process dynamical memory:   141.3 Mb

     Self-consistent Calculation

     iteration #  1     ecut=    60.00 Ry     beta=0.70
     Davidson diagonalization with overlap
     ethr =  1.00E-02,  avg # of iterations =  6.5

     total cpu time spent up to now is       75.5 secs

     total energy              =   -1303.84505397 Ry
     Harris-Foulkes estimate   =   -1307.93298877 Ry
     estimated scf accuracy    <      16.16659897 Ry

     iteration #  2     ecut=    60.00 Ry     beta=0.70
     Davidson diagonalization with overlap
     ethr =  1.00E-02,  avg # of iterations =  1.0

     total cpu time spent up to now is      105.4 secs

     total energy              =   -1303.84598891 Ry
     Harris-Foulkes estimate   =   -1304.08481294 Ry
     estimated scf accuracy    <       1.24598050 Ry

     iteration #  3     ecut=    60.00 Ry     beta=0.70
     Davidson diagonalization with overlap
     ethr =  8.65E-04,  avg # of iterations =  5.0

     total cpu time spent up to now is      153.5 secs

     total energy              =   -1309.47976057 Ry
     Harris-Foulkes estimate   =   -1308.82577897 Ry
     estimated scf accuracy    <      13.76580614 Ry

     iteration #  4     ecut=    60.00 Ry     beta=0.70
     Davidson diagonalization with overlap
     ethr =  8.65E-04,  avg # of iterations =  1.0

     total cpu time spent up to now is      183.5 secs

     total energy              =   -1306.14279712 Ry
     Harris-Foulkes estimate   =   -1309.48524453 Ry
     estimated scf accuracy    <      14.91509626 Ry

     iteration #  5     ecut=    60.00 Ry     beta=0.70
     Davidson diagonalization with overlap
     ethr =  8.65E-04,  avg # of iterations =  1.0

     total cpu time spent up to now is      213.6 secs

     total energy              =   -1299.88995914 Ry
     Harris-Foulkes estimate   =   -1306.17037608 Ry
     estimated scf accuracy    <       9.69591785 Ry

     iteration #  6     ecut=    60.00 Ry     beta=0.70
     Davidson diagonalization with overlap
     ethr =  8.65E-04,  avg # of iterations =  5.0

     total cpu time spent up to now is      263.4 secs

     total energy              =   -1311.27949671 Ry
     Harris-Foulkes estimate   =   -1311.14440104 Ry
     estimated scf accuracy    <      18.87883357 Ry

     iteration #  7     ecut=    60.00 Ry     beta=0.70
     Davidson diagonalization with overlap
     ethr =  8.65E-04,  avg # of iterations =  1.0

     total cpu time spent up to now is      293.6 secs

     total energy              =   -1310.81410750 Ry
     Harris-Foulkes estimate   =   -1311.28654231 Ry
     estimated scf accuracy    <      19.16133409 Ry

     iteration #  8     ecut=    60.00 Ry     beta=0.70
     Davidson diagonalization with overlap
     ethr =  8.65E-04,  avg # of iterations =  1.0

     total cpu time spent up to now is      323.9 secs

     total energy              =   -1307.14888048 Ry
     Harris-Foulkes estimate   =   -1310.81900462 Ry
     estimated scf accuracy    <      18.46759361 Ry

     iteration #  9     ecut=    60.00 Ry     beta=0.70
     Davidson diagonalization with overlap
     ethr =  8.65E-04,  avg # of iterations =  7.5

     total cpu time spent up to now is      359.2 secs

     total energy              =   -1307.34415285 Ry
     Harris-Foulkes estimate   =   -1307.49556479 Ry
     estimated scf accuracy    <       9.35987367 Ry

     iteration # 10     ecut=    60.00 Ry     beta=0.70
     Davidson diagonalization with overlap
     ethr =  8.65E-04,  avg # of iterations =  4.0

     total cpu time spent up to now is      390.2 secs

     total energy              =   -1306.02611691 Ry
     Harris-Foulkes estimate   =   -1307.37909525 Ry
     estimated scf accuracy    <       8.79200275 Ry

     iteration # 11     ecut=    60.00 Ry     beta=0.70
     Davidson diagonalization with overlap
     ethr =  8.65E-04,  avg # of iterations = 10.5

     total cpu time spent up to now is      423.7 secs

     total energy              =   -1304.64705600 Ry
     Harris-Foulkes estimate   =   -1306.23338942 Ry
     estimated scf accuracy    <       5.13723082 Ry

     iteration # 12     ecut=    60.00 Ry     beta=0.70
     Davidson diagonalization with overlap
     ethr =  8.65E-04,  avg # of iterations =  4.5

     total cpu time spent up to now is      468.0 secs

     total energy              =   -1305.91917364 Ry
     Harris-Foulkes estimate   =   -1305.91607471 Ry
     estimated scf accuracy    <       0.34581665 Ry

     iteration # 13     ecut=    60.00 Ry     beta=0.70
     Davidson diagonalization with overlap
     ethr =  2.40E-04,  avg # of iterations =  1.0

     total cpu time spent up to now is      498.4 secs

     total energy              =   -1305.97551658 Ry
     Harris-Foulkes estimate   =   -1305.92429016 Ry
     estimated scf accuracy    <       0.35179016 Ry

     iteration # 14     ecut=    60.00 Ry     beta=0.70
     Davidson diagonalization with overlap
     ethr =  2.40E-04,  avg # of iterations =  7.5

     total cpu time spent up to now is      531.4 secs

     total energy              =   -1307.56807508 Ry
     Harris-Foulkes estimate   =   -1306.02232292 Ry
     estimated scf accuracy    <       0.60754671 Ry

     iteration # 15     ecut=    60.00 Ry     beta=0.70
     Davidson diagonalization with overlap
     ethr =  2.40E-04,  avg # of iterations = 20.0

     total cpu time spent up to now is      594.3 secs

     total energy              =   -1304.95036318 Ry
     Harris-Foulkes estimate   =   -1311.38723162 Ry
     estimated scf accuracy    <      38.31686778 Ry

     iteration # 16     ecut=    60.00 Ry     beta=0.70
     Davidson diagonalization with overlap
     ethr =  2.40E-04,  avg # of iterations = 20.0

     total cpu time spent up to now is      647.7 secs

     total energy              =   -1306.04439333 Ry
     Harris-Foulkes estimate   =   -1306.70456642 Ry
     estimated scf accuracy    <       6.60773268 Ry

     iteration # 17     ecut=    60.00 Ry     beta=0.70
     Davidson diagonalization with overlap
     ethr =  2.40E-04,  avg # of iterations =  1.0

     total cpu time spent up to now is      678.1 secs

     total energy              =   -1305.20498354 Ry
     Harris-Foulkes estimate   =   -1306.05166862 Ry
     estimated scf accuracy    <       5.48217977 Ry

     iteration # 18     ecut=    60.00 Ry     beta=0.70
     Davidson diagonalization with overlap
     ethr =  2.40E-04,  avg # of iterations = 13.0

     total cpu time spent up to now is      723.8 secs

     total energy              =   -1305.80399691 Ry
     Harris-Foulkes estimate   =   -1305.96449049 Ry
     estimated scf accuracy    <       0.51646484 Ry

     iteration # 19     ecut=    60.00 Ry     beta=0.70
     Davidson diagonalization with overlap
     ethr =  2.40E-04,  avg # of iterations =  1.0

     total cpu time spent up to now is      754.2 secs

     total energy              =   -1305.65298955 Ry
     Harris-Foulkes estimate   =   -1305.80956654 Ry
     estimated scf accuracy    <       0.27149095 Ry

     iteration # 20     ecut=    60.00 Ry     beta=0.70
     Davidson diagonalization with overlap
     ethr =  1.89E-04,  avg # of iterations =  6.0

     total cpu time spent up to now is      799.5 secs

     total energy              =   -1306.03682228 Ry
     Harris-Foulkes estimate   =   -1306.13954662 Ry
     estimated scf accuracy    <       1.06053093 Ry

     iteration # 21     ecut=    60.00 Ry     beta=0.70
     Davidson diagonalization with overlap
     ethr =  1.89E-04,  avg # of iterations =  1.0

     total cpu time spent up to now is      829.9 secs

     total energy              =   -1305.69269470 Ry
     Harris-Foulkes estimate   =   -1306.03875388 Ry
     estimated scf accuracy    <       0.90545796 Ry

     iteration # 22     ecut=    60.00 Ry     beta=0.70
     Davidson diagonalization with overlap
     ethr =  1.89E-04,  avg # of iterations =  7.0

     total cpu time spent up to now is      870.3 secs

     total energy              =   -1305.85743436 Ry
     Harris-Foulkes estimate   =   -1305.85938026 Ry
     estimated scf accuracy    <       0.03914520 Ry

     iteration # 23     ecut=    60.00 Ry     beta=0.70
     Davidson diagonalization with overlap
     ethr =  2.72E-05,  avg # of iterations =  4.5

     total cpu time spent up to now is      901.9 secs

     total energy              =   -1305.85823162 Ry
     Harris-Foulkes estimate   =   -1305.85952702 Ry
     estimated scf accuracy    <       0.03230126 Ry

     iteration # 24     ecut=    60.00 Ry     beta=0.70
     Davidson diagonalization with overlap
     ethr =  2.24E-05,  avg # of iterations =  5.0

     total cpu time spent up to now is      942.8 secs

     total energy              =   -1305.87421821 Ry
     Harris-Foulkes estimate   =   -1305.87598409 Ry
     estimated scf accuracy    <       0.07701029 Ry

     iteration # 25     ecut=    60.00 Ry     beta=0.70
     Davidson diagonalization with overlap
     ethr =  2.24E-05,  avg # of iterations =  1.0

     total cpu time spent up to now is      973.3 secs

     total energy              =   -1305.87813242 Ry
     Harris-Foulkes estimate   =   -1305.87448263 Ry
     estimated scf accuracy    <       0.07548685 Ry

     iteration # 26     ecut=    60.00 Ry     beta=0.70
     Davidson diagonalization with overlap
     ethr =  2.24E-05,  avg # of iterations =  1.0

     total cpu time spent up to now is     1003.7 secs

     total energy              =   -1305.82365278 Ry
     Harris-Foulkes estimate   =   -1305.87857563 Ry
     estimated scf accuracy    <       0.08244851 Ry

     iteration # 27     ecut=    60.00 Ry     beta=0.70
     Davidson diagonalization with overlap
     ethr =  2.24E-05,  avg # of iterations =  5.0

     total cpu time spent up to now is     1048.9 secs

     total energy              =   -1305.85473353 Ry
     Harris-Foulkes estimate   =   -1305.87356886 Ry
     estimated scf accuracy    <       0.07452485 Ry

     iteration # 28     ecut=    60.00 Ry     beta=0.70
     Davidson diagonalization with overlap
     ethr =  2.24E-05,  avg # of iterations =  1.0

     total cpu time spent up to now is     1079.3 secs

     total energy              =   -1305.83158646 Ry
     Harris-Foulkes estimate   =   -1305.85539341 Ry
     estimated scf accuracy    <       0.04452957 Ry

     iteration # 29     ecut=    60.00 Ry     beta=0.70
     Davidson diagonalization with overlap
     ethr =  2.24E-05,  avg # of iterations =  5.0

     total cpu time spent up to now is     1123.7 secs

     total energy              =   -1305.85036244 Ry
     Harris-Foulkes estimate   =   -1305.87059647 Ry
     estimated scf accuracy    <       0.06409017 Ry

     iteration # 30     ecut=    60.00 Ry     beta=0.70
     Davidson diagonalization with overlap
     ethr =  2.24E-05,  avg # of iterations =  1.0

     total cpu time spent up to now is     1154.2 secs

     total energy              =   -1305.83292812 Ry
     Harris-Foulkes estimate   =   -1305.85102427 Ry
     estimated scf accuracy    <       0.03369571 Ry

     iteration # 31     ecut=    60.00 Ry     beta=0.70
     Davidson diagonalization with overlap
     ethr =  2.24E-05,  avg # of iterations =  5.0

     total cpu time spent up to now is     1198.5 secs

     total energy              =   -1305.85205468 Ry
     Harris-Foulkes estimate   =   -1305.87288756 Ry
     estimated scf accuracy    <       0.08661226 Ry

     iteration # 32     ecut=    60.00 Ry     beta=0.70
     Davidson diagonalization with overlap
     ethr =  2.24E-05,  avg # of iterations =  1.0

     total cpu time spent up to now is     1229.0 secs

     total energy              =   -1305.81318217 Ry
     Harris-Foulkes estimate   =   -1305.85254673 Ry
     estimated scf accuracy    <       0.05387227 Ry

     iteration # 33     ecut=    60.00 Ry     beta=0.70
     Davidson diagonalization with overlap
     ethr =  2.24E-05,  avg # of iterations =  5.0

     total cpu time spent up to now is     1277.8 secs

     total energy              =   -1305.88146355 Ry
     Harris-Foulkes estimate   =   -1305.93407915 Ry
     estimated scf accuracy    <       0.38411307 Ry

     iteration # 34     ecut=    60.00 Ry     beta=0.70
     Davidson diagonalization with overlap
     ethr =  2.24E-05,  avg # of iterations =  1.5

     total cpu time spent up to now is     1308.3 secs

     total energy              =   -1305.85248569 Ry
     Harris-Foulkes estimate   =   -1305.88218823 Ry
     estimated scf accuracy    <       0.29873418 Ry

     iteration # 35     ecut=    60.00 Ry     beta=0.70
     Davidson diagonalization with overlap
     ethr =  2.24E-05,  avg # of iterations =  5.0

     total cpu time spent up to now is     1348.8 secs

     total energy              =   -1305.85598235 Ry
     Harris-Foulkes estimate   =   -1305.86896873 Ry
     estimated scf accuracy    <       0.07249201 Ry

     iteration # 36     ecut=    60.00 Ry     beta=0.70
     Davidson diagonalization with overlap
     ethr =  2.24E-05,  avg # of iterations =  1.0

     total cpu time spent up to now is     1379.2 secs

     total energy              =   -1305.85354417 Ry
     Harris-Foulkes estimate   =   -1305.85632189 Ry
     estimated scf accuracy    <       0.05118094 Ry

     iteration # 37     ecut=    60.00 Ry     beta=0.70
     Davidson diagonalization with overlap
     ethr =  2.24E-05,  avg # of iterations =  1.0

     total cpu time spent up to now is     1409.6 secs

     total energy              =   -1305.84795123 Ry
     Harris-Foulkes estimate   =   -1305.85407649 Ry
     estimated scf accuracy    <       0.04344446 Ry

     iteration # 38     ecut=    60.00 Ry     beta=0.70
     Davidson diagonalization with overlap
     ethr =  2.24E-05,  avg # of iterations =  1.0

     total cpu time spent up to now is     1440.0 secs

     total energy              =   -1305.84736867 Ry
     Harris-Foulkes estimate   =   -1305.84857650 Ry
     estimated scf accuracy    <       0.03197007 Ry

     iteration # 39     ecut=    60.00 Ry     beta=0.70
     Davidson diagonalization with overlap
     ethr =  2.22E-05,  avg # of iterations =  1.0

     total cpu time spent up to now is     1470.4 secs

     total energy              =   -1305.84704470 Ry
     Harris-Foulkes estimate   =   -1305.84828771 Ry
     estimated scf accuracy    <       0.02565794 Ry

     iteration # 40     ecut=    60.00 Ry     beta=0.70
     Davidson diagonalization with overlap
     ethr =  1.78E-05,  avg # of iterations =  1.0

     total cpu time spent up to now is     1500.9 secs

     total energy              =   -1305.84777542 Ry
     Harris-Foulkes estimate   =   -1305.84785293 Ry
     estimated scf accuracy    <       0.02128682 Ry

     iteration # 41     ecut=    60.00 Ry     beta=0.70
     Davidson diagonalization with overlap
     ethr =  1.48E-05,  avg # of iterations =  5.0

     total cpu time spent up to now is     1532.0 secs

     total energy              =   -1305.84571729 Ry
     Harris-Foulkes estimate   =   -1305.84894665 Ry
     estimated scf accuracy    <       0.01637608 Ry

     iteration # 42     ecut=    60.00 Ry     beta=0.70
     Davidson diagonalization with overlap
     ethr =  1.14E-05,  avg # of iterations =  6.0

     total cpu time spent up to now is     1574.4 secs

     total energy              =   -1305.85838717 Ry
     Harris-Foulkes estimate   =   -1305.85749570 Ry
     estimated scf accuracy    <       0.00940469 Ry

     iteration # 43     ecut=    60.00 Ry     beta=0.70
     Davidson diagonalization with overlap
     ethr =  6.53E-06,  avg # of iterations =  1.0

     total cpu time spent up to now is     1604.9 secs

     total energy              =   -1305.85725757 Ry
     Harris-Foulkes estimate   =   -1305.85847037 Ry
     estimated scf accuracy    <       0.01101458 Ry

     iteration # 44     ecut=    60.00 Ry     beta=0.70
     Davidson diagonalization with overlap
     ethr =  6.53E-06,  avg # of iterations =  2.0

     total cpu time spent up to now is     1635.5 secs

     total energy              =   -1305.85536298 Ry
     Harris-Foulkes estimate   =   -1305.85750121 Ry
     estimated scf accuracy    <       0.01007932 Ry

     iteration # 45     ecut=    60.00 Ry     beta=0.70
     Davidson diagonalization with overlap
     ethr =  6.53E-06,  avg # of iterations =  1.0

     total cpu time spent up to now is     1665.9 secs

     total energy              =   -1305.85483825 Ry
     Harris-Foulkes estimate   =   -1305.85555991 Ry
     estimated scf accuracy    <       0.00663926 Ry

     iteration # 46     ecut=    60.00 Ry     beta=0.70
     Davidson diagonalization with overlap
     ethr =  4.61E-06,  avg # of iterations =  1.0

     total cpu time spent up to now is     1696.3 secs

     total energy              =   -1305.85403987 Ry
     Harris-Foulkes estimate   =   -1305.85500162 Ry
     estimated scf accuracy    <       0.00526892 Ry

     iteration # 47     ecut=    60.00 Ry     beta=0.70
     Davidson diagonalization with overlap
     ethr =  3.66E-06,  avg # of iterations =  8.0

     total cpu time spent up to now is     1729.3 secs

     total energy              =   -1305.85401855 Ry
     Harris-Foulkes estimate   =   -1305.85455733 Ry
     estimated scf accuracy    <       0.00212520 Ry

     iteration # 48     ecut=    60.00 Ry     beta=0.70
     Davidson diagonalization with overlap
     ethr =  1.48E-06,  avg # of iterations =  6.0

     total cpu time spent up to now is     1772.7 secs

     total energy              =   -1305.85549550 Ry
     Harris-Foulkes estimate   =   -1305.85575839 Ry
     estimated scf accuracy    <       0.00125037 Ry

     iteration # 49     ecut=    60.00 Ry     beta=0.70
     Davidson diagonalization with overlap
     ethr =  8.68E-07,  avg # of iterations =  1.0

     total cpu time spent up to now is     1803.1 secs

     total energy              =   -1305.85547861 Ry
     Harris-Foulkes estimate   =   -1305.85550911 Ry
     estimated scf accuracy    <       0.00083910 Ry

     iteration # 50     ecut=    60.00 Ry     beta=0.70
     Davidson diagonalization with overlap
     ethr =  5.83E-07,  avg # of iterations =  1.0

     total cpu time spent up to now is     1833.5 secs

     total energy              =   -1305.85542178 Ry
     Harris-Foulkes estimate   =   -1305.85548939 Ry
     estimated scf accuracy    <       0.00077133 Ry

     iteration # 51     ecut=    60.00 Ry     beta=0.70
     Davidson diagonalization with overlap
     ethr =  5.36E-07,  avg # of iterations =  1.0

     total cpu time spent up to now is     1863.9 secs

     total energy              =   -1305.85543410 Ry
     Harris-Foulkes estimate   =   -1305.85543694 Ry
     estimated scf accuracy    <       0.00062047 Ry

     iteration # 52     ecut=    60.00 Ry     beta=0.70
     Davidson diagonalization with overlap
     ethr =  4.31E-07,  avg # of iterations =  1.0

     total cpu time spent up to now is     1894.3 secs

     total energy              =   -1305.85550927 Ry
     Harris-Foulkes estimate   =   -1305.85544458 Ry
     estimated scf accuracy    <       0.00060446 Ry

     iteration # 53     ecut=    60.00 Ry     beta=0.70
     Davidson diagonalization with overlap
     ethr =  4.20E-07,  avg # of iterations =  1.0

     total cpu time spent up to now is     1924.8 secs

     total energy              =   -1305.85554273 Ry
     Harris-Foulkes estimate   =   -1305.85551793 Ry
     estimated scf accuracy    <       0.00068467 Ry

     iteration # 54     ecut=    60.00 Ry     beta=0.70
     Davidson diagonalization with overlap
     ethr =  4.20E-07,  avg # of iterations =  1.0

     total cpu time spent up to now is     1955.2 secs

     total energy              =   -1305.85572929 Ry
     Harris-Foulkes estimate   =   -1305.85554758 Ry
     estimated scf accuracy    <       0.00071910 Ry

     iteration # 55     ecut=    60.00 Ry     beta=0.70
     Davidson diagonalization with overlap
     ethr =  4.20E-07,  avg # of iterations =  1.0

     total cpu time spent up to now is     1985.6 secs

     total energy              =   -1305.85581099 Ry
     Harris-Foulkes estimate   =   -1305.85573876 Ry
     estimated scf accuracy    <       0.00101523 Ry

     iteration # 56     ecut=    60.00 Ry     beta=0.70
     Davidson diagonalization with overlap
     ethr =  4.20E-07,  avg # of iterations =  1.0

     total cpu time spent up to now is     2016.0 secs

     total energy              =   -1305.85499420 Ry
     Harris-Foulkes estimate   =   -1305.85582285 Ry
     estimated scf accuracy    <       0.00120807 Ry

     iteration # 57     ecut=    60.00 Ry     beta=0.70
     Davidson diagonalization with overlap
     ethr =  4.20E-07,  avg # of iterations =  5.0

     total cpu time spent up to now is     2061.8 secs

     total energy              =   -1305.85529939 Ry
     Harris-Foulkes estimate   =   -1305.85607015 Ry
     estimated scf accuracy    <       0.00240294 Ry

     iteration # 58     ecut=    60.00 Ry     beta=0.70
     Davidson diagonalization with overlap
     ethr =  4.20E-07,  avg # of iterations =  4.0

     total cpu time spent up to now is     2092.8 secs

     total energy              =   -1305.85472377 Ry
     Harris-Foulkes estimate   =   -1305.85532695 Ry
     estimated scf accuracy    <       0.00122676 Ry

     iteration # 59     ecut=    60.00 Ry     beta=0.70
     Davidson diagonalization with overlap
     ethr =  4.20E-07,  avg # of iterations =  5.0

     total cpu time spent up to now is     2139.2 secs

     total energy              =   -1305.85558764 Ry
     Harris-Foulkes estimate   =   -1305.85584832 Ry
     estimated scf accuracy    <       0.00155069 Ry

     iteration # 60     ecut=    60.00 Ry     beta=0.70
     Davidson diagonalization with overlap
     ethr =  4.20E-07,  avg # of iterations =  1.0

     total cpu time spent up to now is     2169.6 secs

     total energy              =   -1305.85541756 Ry
     Harris-Foulkes estimate   =   -1305.85559159 Ry
     estimated scf accuracy    <       0.00116271 Ry

     iteration # 61     ecut=    60.00 Ry     beta=0.70
     Davidson diagonalization with overlap
     ethr =  4.20E-07,  avg # of iterations =  3.0

     total cpu time spent up to now is     2201.1 secs

     total energy              =   -1305.85545226 Ry
     Harris-Foulkes estimate   =   -1305.85545393 Ry
     estimated scf accuracy    <       0.00065671 Ry

     iteration # 62     ecut=    60.00 Ry     beta=0.70
     Davidson diagonalization with overlap
     ethr =  4.20E-07,  avg # of iterations =  1.0

     total cpu time spent up to now is     2231.5 secs

     total energy              =   -1305.85545005 Ry
     Harris-Foulkes estimate   =   -1305.85546059 Ry
     estimated scf accuracy    <       0.00063331 Ry

     iteration # 63     ecut=    60.00 Ry     beta=0.70
     Davidson diagonalization with overlap
     ethr =  4.20E-07,  avg # of iterations =  1.0

     total cpu time spent up to now is     2261.9 secs

     total energy              =   -1305.85542310 Ry
     Harris-Foulkes estimate   =   -1305.85545575 Ry
     estimated scf accuracy    <       0.00058354 Ry

     iteration # 64     ecut=    60.00 Ry     beta=0.70
     Davidson diagonalization with overlap
     ethr =  4.05E-07,  avg # of iterations =  1.0

     total cpu time spent up to now is     2292.3 secs

     total energy              =   -1305.85542373 Ry
     Harris-Foulkes estimate   =   -1305.85543010 Ry
     estimated scf accuracy    <       0.00051000 Ry

     iteration # 65     ecut=    60.00 Ry     beta=0.70
     Davidson diagonalization with overlap
     ethr =  3.54E-07,  avg # of iterations =  1.0

     total cpu time spent up to now is     2322.7 secs

     total energy              =   -1305.85530980 Ry
     Harris-Foulkes estimate   =   -1305.85543069 Ry
     estimated scf accuracy    <       0.00046000 Ry

     iteration # 66     ecut=    60.00 Ry     beta=0.70
     Davidson diagonalization with overlap
     ethr =  3.19E-07,  avg # of iterations = 11.5

     total cpu time spent up to now is     2356.4 secs

     total energy              =   -1305.85536596 Ry
     Harris-Foulkes estimate   =   -1305.85537974 Ry
     estimated scf accuracy    <       0.00008182 Ry

     iteration # 67     ecut=    60.00 Ry     beta=0.70
     Davidson diagonalization with overlap
     ethr =  5.68E-08,  avg # of iterations =  5.0

     total cpu time spent up to now is     2402.9 secs

     total energy              =   -1305.85553044 Ry
     Harris-Foulkes estimate   =   -1305.85551803 Ry
     estimated scf accuracy    <       0.00013004 Ry

     iteration # 68     ecut=    60.00 Ry     beta=0.70
     Davidson diagonalization with overlap
     ethr =  5.68E-08,  avg # of iterations =  1.0

     total cpu time spent up to now is     2433.3 secs

     total energy              =   -1305.85551797 Ry
     Harris-Foulkes estimate   =   -1305.85553127 Ry
     estimated scf accuracy    <       0.00015272 Ry

     iteration # 69     ecut=    60.00 Ry     beta=0.70
     Davidson diagonalization with overlap
     ethr =  5.68E-08,  avg # of iterations =  1.0

     total cpu time spent up to now is     2463.7 secs

     total energy              =   -1305.85547126 Ry
     Harris-Foulkes estimate   =   -1305.85551866 Ry
     estimated scf accuracy    <       0.00013182 Ry

     iteration # 70     ecut=    60.00 Ry     beta=0.70
     Davidson diagonalization with overlap
     ethr =  5.68E-08,  avg # of iterations =  1.0

     total cpu time spent up to now is     2494.1 secs

     total energy              =   -1305.85546638 Ry
     Harris-Foulkes estimate   =   -1305.85547314 Ry
     estimated scf accuracy    <       0.00006012 Ry

     iteration # 71     ecut=    60.00 Ry     beta=0.70
     Davidson diagonalization with overlap
     ethr =  4.18E-08,  avg # of iterations =  9.5

     total cpu time spent up to now is     2531.1 secs

     total energy              =   -1305.85548809 Ry
     Harris-Foulkes estimate   =   -1305.85548943 Ry
     estimated scf accuracy    <       0.00001250 Ry

     iteration # 72     ecut=    60.00 Ry     beta=0.70
     Davidson diagonalization with overlap
     ethr =  8.68E-09,  avg # of iterations =  5.0

     total cpu time spent up to now is     2570.3 secs

     total energy              =   -1305.85549157 Ry
     Harris-Foulkes estimate   =   -1305.85549249 Ry
     estimated scf accuracy    <       0.00001742 Ry

     iteration # 73     ecut=    60.00 Ry     beta=0.70
     Davidson diagonalization with overlap
     ethr =  8.68E-09,  avg # of iterations =  1.0

     total cpu time spent up to now is     2600.7 secs

     total energy              =   -1305.85548560 Ry
     Harris-Foulkes estimate   =   -1305.85549161 Ry
     estimated scf accuracy    <       0.00001574 Ry

     iteration # 74     ecut=    60.00 Ry     beta=0.70
     Davidson diagonalization with overlap
     ethr =  8.68E-09,  avg # of iterations =  1.0

     total cpu time spent up to now is     2631.1 secs

     total energy              =   -1305.85548319 Ry
     Harris-Foulkes estimate   =   -1305.85548596 Ry
     estimated scf accuracy    <       0.00000553 Ry

     iteration # 75     ecut=    60.00 Ry     beta=0.70
     Davidson diagonalization with overlap
     ethr =  3.84E-09,  avg # of iterations =  5.0

     total cpu time spent up to now is     2679.3 secs

     total energy              =   -1305.85548987 Ry
     Harris-Foulkes estimate   =   -1305.85549748 Ry
     estimated scf accuracy    <       0.00004121 Ry

     iteration # 76     ecut=    60.00 Ry     beta=0.70
     Davidson diagonalization with overlap
     ethr =  3.84E-09,  avg # of iterations =  1.0

     total cpu time spent up to now is     2709.8 secs

     total energy              =   -1305.85548429 Ry
     Harris-Foulkes estimate   =   -1305.85549001 Ry
     estimated scf accuracy    <       0.00002836 Ry

     iteration # 77     ecut=    60.00 Ry     beta=0.70
     Davidson diagonalization with overlap
     ethr =  3.84E-09,  avg # of iterations =  5.0

     total cpu time spent up to now is     2753.9 secs

     total energy              =   -1305.85548942 Ry
     Harris-Foulkes estimate   =   -1305.85548953 Ry
     estimated scf accuracy    <       0.00000040 Ry

     iteration # 78     ecut=    60.00 Ry     beta=0.70
     Davidson diagonalization with overlap
     ethr =  2.79E-10,  avg # of iterations =  3.5

     total cpu time spent up to now is     2785.2 secs

     total energy              =   -1305.85548937 Ry
     Harris-Foulkes estimate   =   -1305.85548945 Ry
     estimated scf accuracy    <       0.00000021 Ry

     iteration # 79     ecut=    60.00 Ry     beta=0.70
     Davidson diagonalization with overlap
     ethr =  1.47E-10,  avg # of iterations =  6.0

     total cpu time spent up to now is     2829.2 secs

     total energy              =   -1305.85548951 Ry
     Harris-Foulkes estimate   =   -1305.85548954 Ry
     estimated scf accuracy    <       0.00000017 Ry

     iteration # 80     ecut=    60.00 Ry     beta=0.70
     Davidson diagonalization with overlap
     ethr =  1.18E-10,  avg # of iterations = 12.5

     total cpu time spent up to now is     2865.5 secs

     total energy              =   -1305.85548959 Ry
     Harris-Foulkes estimate   =   -1305.85548956 Ry
     estimated scf accuracy    <       0.00000027 Ry

     iteration # 81     ecut=    60.00 Ry     beta=0.70
     Davidson diagonalization with overlap
     ethr =  1.18E-10,  avg # of iterations =  7.0

     total cpu time spent up to now is     2902.8 secs

     total energy              =   -1305.85548960 Ry
     Harris-Foulkes estimate   =   -1305.85548965 Ry
     estimated scf accuracy    <       0.00000072 Ry

     iteration # 82     ecut=    60.00 Ry     beta=0.70
     Davidson diagonalization with overlap
     ethr =  1.18E-10,  avg # of iterations =  1.0

     total cpu time spent up to now is     2933.2 secs

     total energy              =   -1305.85548947 Ry
     Harris-Foulkes estimate   =   -1305.85548960 Ry
     estimated scf accuracy    <       0.00000063 Ry

     iteration # 83     ecut=    60.00 Ry     beta=0.70
     Davidson diagonalization with overlap
     ethr =  1.18E-10,  avg # of iterations =  1.0

     total cpu time spent up to now is     2963.7 secs

     total energy              =   -1305.85548945 Ry
     Harris-Foulkes estimate   =   -1305.85548948 Ry
     estimated scf accuracy    <       0.00000042 Ry

     iteration # 84     ecut=    60.00 Ry     beta=0.70
     Davidson diagonalization with overlap
     ethr =  1.18E-10,  avg # of iterations =  8.5

     total cpu time spent up to now is     2996.4 secs

     total energy              =   -1305.85548943 Ry
     Harris-Foulkes estimate   =   -1305.85548947 Ry
     estimated scf accuracy    <       0.00000025 Ry

     iteration # 85     ecut=    60.00 Ry     beta=0.70
     Davidson diagonalization with overlap
     ethr =  1.18E-10,  avg # of iterations =  1.0

     total cpu time spent up to now is     3026.8 secs

     total energy              =   -1305.85548934 Ry
     Harris-Foulkes estimate   =   -1305.85548943 Ry
     estimated scf accuracy    <       0.00000017 Ry

     iteration # 86     ecut=    60.00 Ry     beta=0.70
     Davidson diagonalization with overlap
     ethr =  1.17E-10,  avg # of iterations =  5.0

     total cpu time spent up to now is     3073.2 secs

     total energy              =   -1305.85548956 Ry
     Harris-Foulkes estimate   =   -1305.85548967 Ry
     estimated scf accuracy    <       0.00000080 Ry

     iteration # 87     ecut=    60.00 Ry     beta=0.70
     Davidson diagonalization with overlap
     ethr =  1.17E-10,  avg # of iterations =  1.0

     total cpu time spent up to now is     3103.6 secs

     total energy              =   -1305.85548967 Ry
     Harris-Foulkes estimate   =   -1305.85548956 Ry
     estimated scf accuracy    <       0.00000063 Ry

     iteration # 88     ecut=    60.00 Ry     beta=0.70
     Davidson diagonalization with overlap
     ethr =  1.17E-10,  avg # of iterations =  1.0

     total cpu time spent up to now is     3134.1 secs

     total energy              =   -1305.85548969 Ry
     Harris-Foulkes estimate   =   -1305.85548968 Ry
     estimated scf accuracy    <       0.00000080 Ry

     iteration # 89     ecut=    60.00 Ry     beta=0.70
     Davidson diagonalization with overlap
     ethr =  1.17E-10,  avg # of iterations =  1.0

     total cpu time spent up to now is     3164.5 secs

     total energy              =   -1305.85548966 Ry
     Harris-Foulkes estimate   =   -1305.85548969 Ry
     estimated scf accuracy    <       0.00000084 Ry

     iteration # 90     ecut=    60.00 Ry     beta=0.70
     Davidson diagonalization with overlap
     ethr =  1.17E-10,  avg # of iterations =  1.0

     total cpu time spent up to now is     3194.9 secs

     total energy              =   -1305.85548950 Ry
     Harris-Foulkes estimate   =   -1305.85548966 Ry
     estimated scf accuracy    <       0.00000081 Ry

     iteration # 91     ecut=    60.00 Ry     beta=0.70
     Davidson diagonalization with overlap
     ethr =  1.17E-10,  avg # of iterations =  1.0

     total cpu time spent up to now is     3225.3 secs

     total energy              =   -1305.85548928 Ry
     Harris-Foulkes estimate   =   -1305.85548951 Ry
     estimated scf accuracy    <       0.00000055 Ry

     iteration # 92     ecut=    60.00 Ry     beta=0.70
     Davidson diagonalization with overlap
     ethr =  1.17E-10,  avg # of iterations =  6.0

     total cpu time spent up to now is     3271.3 secs

     total energy              =   -1305.85548957 Ry
     Harris-Foulkes estimate   =   -1305.85548958 Ry
     estimated scf accuracy    <       0.00000041 Ry

     iteration # 93     ecut=    60.00 Ry     beta=0.70
     Davidson diagonalization with overlap
     ethr =  1.17E-10,  avg # of iterations =  1.0

     total cpu time spent up to now is     3301.7 secs

     total energy              =   -1305.85548950 Ry
     Harris-Foulkes estimate   =   -1305.85548957 Ry
     estimated scf accuracy    <       0.00000039 Ry

     iteration # 94     ecut=    60.00 Ry     beta=0.70
     Davidson diagonalization with overlap
     ethr =  1.17E-10,  avg # of iterations =  1.0

     total cpu time spent up to now is     3332.1 secs

     total energy              =   -1305.85548948 Ry
     Harris-Foulkes estimate   =   -1305.85548950 Ry
     estimated scf accuracy    <       0.00000027 Ry

     iteration # 95     ecut=    60.00 Ry     beta=0.70
     Davidson diagonalization with overlap
     ethr =  1.17E-10,  avg # of iterations =  1.0

     total cpu time spent up to now is     3362.5 secs

     total energy              =   -1305.85548941 Ry
     Harris-Foulkes estimate   =   -1305.85548949 Ry
     estimated scf accuracy    <       0.00000023 Ry

     iteration # 96     ecut=    60.00 Ry     beta=0.70
     Davidson diagonalization with overlap
     ethr =  1.17E-10,  avg # of iterations =  8.0

     total cpu time spent up to now is     3403.9 secs

     total energy              =   -1305.85548953 Ry
     Harris-Foulkes estimate   =   -1305.85548953 Ry
     estimated scf accuracy    <       0.00000013 Ry

     iteration # 97     ecut=    60.00 Ry     beta=0.70
     Davidson diagonalization with overlap
     ethr =  8.79E-11,  avg # of iterations =  1.0

     total cpu time spent up to now is     3434.3 secs

     total energy              =   -1305.85548953 Ry
     Harris-Foulkes estimate   =   -1305.85548953 Ry
     estimated scf accuracy    <       0.00000013 Ry

     iteration # 98     ecut=    60.00 Ry     beta=0.70
     Davidson diagonalization with overlap
     ethr =  8.73E-11,  avg # of iterations =  1.0

     total cpu time spent up to now is     3464.7 secs

     total energy              =   -1305.85548953 Ry
     Harris-Foulkes estimate   =   -1305.85548953 Ry
     estimated scf accuracy    <       0.00000013 Ry

     iteration # 99     ecut=    60.00 Ry     beta=0.70
     Davidson diagonalization with overlap
     ethr =  8.73E-11,  avg # of iterations =  1.0

     total cpu time spent up to now is     3495.2 secs

     total energy              =   -1305.85548954 Ry
     Harris-Foulkes estimate   =   -1305.85548953 Ry
     estimated scf accuracy    <       0.00000013 Ry

     iteration #100     ecut=    60.00 Ry     beta=0.70
     Davidson diagonalization with overlap
     ethr =  8.73E-11,  avg # of iterations =  1.0

     total cpu time spent up to now is     3525.6 secs

     total energy              =   -1305.85548951 Ry
     Harris-Foulkes estimate   =   -1305.85548954 Ry
     estimated scf accuracy    <       0.00000014 Ry

     iteration #101     ecut=    60.00 Ry     beta=0.70
     Davidson diagonalization with overlap
     ethr =  8.73E-11,  avg # of iterations =  1.0

     total cpu time spent up to now is     3556.0 secs

     total energy              =   -1305.85548950 Ry
     Harris-Foulkes estimate   =   -1305.85548951 Ry
     estimated scf accuracy    <       0.00000011 Ry

     iteration #102     ecut=    60.00 Ry     beta=0.70
     Davidson diagonalization with overlap
     ethr =  7.35E-11,  avg # of iterations =  1.0

     total cpu time spent up to now is     3586.4 secs

     total energy              =   -1305.85548949 Ry
     Harris-Foulkes estimate   =   -1305.85548951 Ry
     estimated scf accuracy    <       0.00000008 Ry

     iteration #103     ecut=    60.00 Ry     beta=0.70
     Davidson diagonalization with overlap
     ethr =  5.58E-11,  avg # of iterations =  1.0

     total cpu time spent up to now is     3616.8 secs

     total energy              =   -1305.85548948 Ry
     Harris-Foulkes estimate   =   -1305.85548949 Ry
     estimated scf accuracy    <       0.00000006 Ry

     iteration #104     ecut=    60.00 Ry     beta=0.70
     Davidson diagonalization with overlap
     ethr =  4.23E-11,  avg # of iterations =  8.0

     total cpu time spent up to now is     3654.0 secs

     total energy              =   -1305.85548951 Ry
     Harris-Foulkes estimate   =   -1305.85548951 Ry
     estimated scf accuracy    <       0.00000002 Ry

     iteration #105     ecut=    60.00 Ry     beta=0.70
     Davidson diagonalization with overlap
     ethr =  1.17E-11,  avg # of iterations =  6.0

     total cpu time spent up to now is     3697.0 secs

     total energy              =   -1305.85548951 Ry
     Harris-Foulkes estimate   =   -1305.85548952 Ry
     estimated scf accuracy    <       0.00000008 Ry

     iteration #106     ecut=    60.00 Ry     beta=0.70
     Davidson diagonalization with overlap
     ethr =  1.17E-11,  avg # of iterations =  1.0

     total cpu time spent up to now is     3727.4 secs

     total energy              =   -1305.85548950 Ry
     Harris-Foulkes estimate   =   -1305.85548951 Ry
     estimated scf accuracy    <       0.00000006 Ry

     iteration #107     ecut=    60.00 Ry     beta=0.70
     Davidson diagonalization with overlap
     ethr =  1.17E-11,  avg # of iterations =  6.5

     total cpu time spent up to now is     3765.0 secs

     total energy              =   -1305.85548951 Ry
     Harris-Foulkes estimate   =   -1305.85548951 Ry
     estimated scf accuracy    <       0.00000001 Ry

     iteration #108     ecut=    60.00 Ry     beta=0.70
     Davidson diagonalization with overlap
     ethr =  8.84E-12,  avg # of iterations =  3.0

     total cpu time spent up to now is     3795.7 secs

     End of self-consistent calculation

          k = 0.0142 0.0192 0.0177 ( 32534 PWs)   bands (ev):

   -15.0809 -15.0584 -14.8687 -14.8341 -12.9677 -12.9269 -12.2870 -12.2740
   -12.1097 -12.1026 -11.9057 -11.8749 -11.2108 -11.1435  -9.7715  -9.7666
    -8.7906  -8.7400  -8.4201  -8.3847  -8.1959  -8.1913  -7.8144  -7.5620
    -7.2927  -7.2680  -6.2276  -6.0482  -5.4527  -5.3542  -4.9229  -4.8699
    -4.6588  -4.6502  -4.4863  -4.4417  -4.4088  -4.3663  -3.6696  -3.5786
    -3.4921  -3.4273  -3.3851  -3.2568  -3.2315  -3.0849  -2.7413  -2.6057
    -2.5551  -2.5339  -1.9924  -1.8058  -1.7408  -1.6313  -1.5112  -1.2309
    -0.9296  -0.8783  -0.8379  -0.6687  -0.2563  -0.1266  -0.0811  -0.0577
     0.0235   0.1474   0.1874   0.2583   0.6352   0.6869   0.7855   0.9117

          k = 0.0134 0.0192-0.0110 ( 32500 PWs)   bands (ev):

   -15.0928 -15.0460 -14.8524 -14.8507 -12.9624 -12.9307 -12.2916 -12.2742
   -12.1107 -12.1032 -11.9192 -11.8599 -11.1877 -11.1607  -9.7734  -9.7670
    -8.7954  -8.7340  -8.4130  -8.3865  -8.2043  -8.1882  -7.8108  -7.5721
    -7.2841  -7.2692  -6.1847  -6.1072  -5.4746  -5.3339  -4.9138  -4.8697
    -4.6649  -4.6446  -4.4669  -4.4596  -4.4126  -4.3642  -3.6664  -3.6390
    -3.5189  -3.4352  -3.3440  -3.2105  -3.1392  -3.0749  -2.7455  -2.6641
    -2.6115  -2.4827  -1.9835  -1.8228  -1.7286  -1.6300  -1.5221  -1.2309
    -0.9239  -0.8742  -0.8653  -0.6497  -0.2721  -0.1322  -0.1078  -0.0689
     0.0217   0.1447   0.1733   0.2751   0.6331   0.6971   0.7969   0.9172
 TIME (initial):        0.0
* Atoms contributing density to the main cell
  Number of atoms:   15778
 
 TIME (set up the environment):        0.1
 DOCALC: T F T T
 ESAVE:       0.000000000000       0.000000000000       0.000000000000
* XDM: using PAW all-electron density reconstruction? T
 TIME (promolecular grid):       27.5
 TIME (calculation of b grid):       28.3
 TIME (calculation of volumes and moments):      205.5
 
+ Volume and moments
# All results in atomic units.
# i              V                  Vfree                 M1                  M2                  M3
  1        94.2592966816       114.0071219785         7.7662403036       160.3502328894      3827.7948080279
  2        94.2592966816       114.0071219785         7.7662403036       160.3502328894      3827.7948080279
  3        94.4229845561       114.0071219785         7.8411487046       160.7162282736      3804.3785586302
  4        94.4229845561       114.0071219785         7.8411487046       160.7162282736      3804.3785586302
  5        33.8339608095        39.0349749523         3.8424160406        51.4387322261       987.8940199263
  6        33.8339608095        39.0349749523         3.8424160406        51.4387322261       987.8940199263
  7        32.1795516502        39.0349749523         4.0696820872        53.4453108108       988.6684209920
  8        32.1795516502        39.0349749523         4.0696820872        53.4453108108       988.6684209920
  9        32.8206562253        39.0349749523         4.1057097282        54.2208319235      1001.5465512145
 10        32.8206562253        39.0349749523         4.1057097282        54.2208319235      1001.5465512145
 11        33.9059884078        39.0349749523         3.8155529097        51.0451175907       984.4633495079
 12        33.9059884078        39.0349749523         3.8155529097        51.0451175907       984.4633495078
 13        32.6056265659        39.0349749523         4.1779341373        55.0820035290      1006.0703242795
 14        32.6056265659        39.0349749523         4.1779341373        55.0820035290      1006.0703242795
 15        31.9947415913        39.0349749523         4.1487933127        54.4141566522       993.4710394417
 16        31.9947415913        39.0349749523         4.1487933127        54.4141566522       993.4710394417
 17        32.2029105071        39.0349749523         4.0702305773        53.6775052917       993.0115766427
 18        32.2029105071        39.0349749523         4.0702305773        53.6775052917       993.0115766427
 19        32.8476998420        39.0349749523         4.1102535608        54.3295868215      1005.2810236063
 20        32.8476998420        39.0349749523         4.1102535608        54.3295868215      1005.2810236063
 21        33.8957539264        39.0349749523         3.8231660650        51.1932394388       986.7134916375
 22        33.8957539264        39.0349749523         3.8231660650        51.1932394388       986.7134916375
 23        33.8244332729        39.0349749523         3.8389337310        51.2784386205       984.4024275476
 24        33.8244332729        39.0349749523         3.8389337310        51.2784386205       984.4024275476
 25        32.5707459800        39.0349749523         4.1543955007        54.6608084855      1000.7285766738
 26        32.5707459800        39.0349749523         4.1543955007        54.6608084855      1000.7285766738
 27        31.9658347645        39.0349749523         4.0878796748        53.6594137828       987.5483750001
 28        31.9658347645        39.0349749523         4.0878796748        53.6594137828       987.5483750001
 29         7.7371296792        10.4882987305         1.6541462581        15.1234793208       290.5532427328
 30         7.7371296792        10.4882987305         1.6541462581        15.1234793208       290.5532427328
 31         7.3469174360        10.4882987305         1.6268762327        14.4689397292       277.7794468574
 32         7.3469174360        10.4882987305         1.6268762327        14.4689397292       277.7794468574
 33         7.3936423406        10.4882987305         1.5802735929        14.1636722716       278.4191631048
 34         7.3936423406        10.4882987305         1.5802735929        14.1636722716       278.4191631048
 35         7.7837999799        10.4882987305         1.6357654498        15.0513507642       292.8246062752
 36         7.7837999799        10.4882987305         1.6357654498        15.0513507642       292.8246062752
 37         7.7003397573        10.4882987305         1.6511448484        15.0494811656       289.1151646306
 38         7.7003397573        10.4882987305         1.6511448484        15.0494811656       289.1151646306
 39         7.0998242127        10.4882987305         1.5890225339        14.0437595888       276.0537861290
 40         7.0998242127        10.4882987305         1.5890225339        14.0437595888       276.0537861290
 41         7.4451195863        10.4882987305         1.5984515101        14.3015366497       278.1768681730
 42         7.4451195863        10.4882987305         1.5984515101        14.3015366497       278.1768681730
 43         7.7427176798        10.4882987305         1.6391364846        15.0072608377       290.6083708828
 44         7.7427176798        10.4882987305         1.6391364846        15.0072608377       290.6083708828
 45        69.9302682212        77.4908459489         7.4735634503       120.1216310144      2008.8956132531
 46        69.9302682212        77.4908459489         7.4735634503       120.1216310144      2008.8956132532
 
+ Dispersion coefficients
# All results in atomic units.
# i   j              C6                  C8                  C10                   Rc                  Rvdw
  1   1        93.3785053671      5783.9821446612    351287.4908488407         7.8317252589         7.7457945947
  2   1        93.3785053671      5783.9821446611    351287.4908488354         7.8317252589         7.7457945947
  2   2        93.3785053671      5783.9821446610    351287.4908488301         7.8317252589         7.7457945947
  3   1        93.9084685540      5795.5989792088    350609.7920446859         7.8168796375         7.7397895409
  3   2        93.9084685540      5795.5989792087    350609.7920446806         7.8168796375         7.7397895409
  3   3        94.4428996798      5807.2511550026    349927.4885320396         7.8019991093         7.7337703672
  4   1        93.9084685540      5795.5989792087    350609.7920446845         7.8168796375         7.7397895409
  4   2        93.9084685540      5795.5989792087    350609.7920446792         7.8168796375         7.7397895409
  4   3        94.4428996798      5807.2511550026    349927.4885320381         7.8019991093         7.7337703672
  4   4        94.4428996798      5807.2511550026    349927.4885320367         7.8019991093         7.7337703672
  5   1        42.8626247830      2188.1905642552    114051.2124975680         7.1822278547         7.4830728947
  5   2        42.8626247830      2188.1905642552    114051.2124975662         7.1822278547         7.4830728947
  5   3        43.1181353671      2191.4962271585    113702.4747984057         7.1660746451         7.4765389214
  5   4        43.1181353671      2191.4962271584    113702.4747984053         7.1660746451         7.4765389214
  5   5        19.7780104718       794.3094453221     35226.7664051541         6.4977283475         7.2061928440
  6   1        42.8626247830      2188.1905642552    114051.2124975678         7.1822278547         7.4830728947
  6   2        42.8626247830      2188.1905642552    114051.2124975660         7.1822278547         7.4830728947
  6   3        43.1181353671      2191.4962271585    113702.4747984054         7.1660746451         7.4765389214
  6   4        43.1181353671      2191.4962271585    113702.4747984050         7.1660746451         7.4765389214
  6   5        19.7780104718       794.3094453221     35226.7664051539         6.4977283475         7.2061928440
  6   6        19.7780104718       794.3094453221     35226.7664051537         6.4977283475         7.2061928440
  7   1        42.7916833919      2168.2313605308    111705.4621459320         7.1479459831         7.4692058776
  7   2        42.7916833919      2168.2313605307    111705.4621459301         7.1479459831         7.4692058776
  7   3        43.0557903280      2171.8891247930    111374.7030061533         7.1316692893         7.4626219550
  7   4        43.0557903280      2171.8891247930    111374.7030061529         7.1316692893         7.4626219550
  7   5        19.8219345947       788.5056204981     34459.6824061094         6.4583465439         7.1902629045
  7   6        19.8219345947       788.5056204981     34459.6824061092         6.4583465439         7.1902629045
  7   7        19.9235097850       784.9395727332     33792.0388121627         6.4184958858         7.1741433133
  8   1        42.7916833919      2168.2313605308    111705.4621459321         7.1479459831         7.4692058776
  8   2        42.7916833919      2168.2313605307    111705.4621459302         7.1479459831         7.4692058776
  8   3        43.0557903280      2171.8891247930    111374.7030061534         7.1316692893         7.4626219550
  8   4        43.0557903280      2171.8891247930    111374.7030061530         7.1316692893         7.4626219550
  8   5        19.8219345947       788.5056204981     34459.6824061094         6.4583465439         7.1902629045
  8   6        19.8219345947       788.5056204981     34459.6824061092         6.4583465439         7.1902629045
  8   7        19.9235097850       784.9395727332     33792.0388121626         6.4184958858         7.1741433133
  8   8        19.9235097850       784.9395727332     33792.0388121626         6.4184958858         7.1741433133
  9   1        43.4358084974      2205.6674123655    113751.6278141394         7.1536814519         7.4715258748
  9   2        43.4358084974      2205.6674123654    113751.6278141374         7.1536814519         7.4715258748
  9   3        43.7029669469      2209.3631410980    113413.7074931076         7.1374121026         7.4649449230
  9   4        43.7029669469      2209.3631410980    113413.7074931072         7.1374121026         7.4649449230
  9   5        20.1124265950       802.2831576630     35088.3992452147         6.4640010095         7.1925501358
  9   6        20.1124265950       802.2831576630     35088.3992452146         6.4640010095         7.1925501358
  9   7        20.2095617727       798.4420070904     34399.9221321071         6.4241852594         7.1764446649
  9   8        20.2095617727       798.4420070904     34399.9221321071         6.4241852594         7.1764446649
  9   9        20.5003311220       812.1945400767     35019.8047007546         6.4298821271         7.1787490479
 10   1        43.4358084974      2205.6674123654    113751.6278141382         7.1536814519         7.4715258748
 10   2        43.4358084974      2205.6674123654    113751.6278141363         7.1536814519         7.4715258748
 10   3        43.7029669469      2209.3631410980    113413.7074931065         7.1374121026         7.4649449230
 10   4        43.7029669469      2209.3631410980    113413.7074931061         7.1374121026         7.4649449230
 10   5        20.1124265950       802.2831576630     35088.3992452144         6.4640010095         7.1925501358
 10   6        20.1124265950       802.2831576630     35088.3992452143         6.4640010095         7.1925501358
 10   7        20.2095617727       798.4420070904     34399.9221321068         6.4241852594         7.1764446649
 10   8        20.2095617727       798.4420070904     34399.9221321068         6.4241852594         7.1764446649
 10   9        20.5003311220       812.1945400767     35019.8047007543         6.4298821271         7.1787490479
 10  10        20.5003311220       812.1945400767     35019.8047007540         6.4298821271         7.1787490479
 11   1        42.7716476497      2182.9744388224    113854.0171007559         7.1829416665         7.4833616316
 11   2        42.7716476497      2182.9744388224    113854.0171007541         7.1829416665         7.4833616316
 11   3        43.0258461261      2186.2305637462    113504.4988672905         7.1667970817         7.4768311470
 11   4        43.0258461261      2186.2305637462    113504.4988672902         7.1667970817         7.4768311470
 11   5        19.7295143711       792.0981032293     35166.4524387030         6.4989708719         7.2066954452
 11   6        19.7295143711       792.0981032293     35166.4524387028         6.4989708719         7.2066954452
 11   7        19.7684739807       786.1147875858     34393.0457202855         6.4596185672         7.1907774379
 11   8        19.7684739807       786.1147875858     34393.0457202855         6.4596185672         7.1907774379
 11   9        20.0586814039       799.8711883912     35021.2681039247         6.4652663028         7.1930619470
 11  10        20.0586814039       799.8711883912     35021.2681039244         6.4652663028         7.1930619470
 11  11        19.6815484370       789.9093353840     35106.9625916032         6.5002135772         7.2071981195
 12   1        42.7716476497      2182.9744388224    113854.0171007563         7.1829416665         7.4833616316
 12   2        42.7716476497      2182.9744388224    113854.0171007545         7.1829416665         7.4833616316
 12   3        43.0258461261      2186.2305637462    113504.4988672909         7.1667970817         7.4768311470
 12   4        43.0258461261      2186.2305637462    113504.4988672905         7.1667970817         7.4768311470
 12   5        19.7295143711       792.0981032293     35166.4524387031         6.4989708719         7.2066954452
 12   6        19.7295143711       792.0981032293     35166.4524387029         6.4989708719         7.2066954452
 12   7        19.7684739807       786.1147875858     34393.0457202856         6.4596185672         7.1907774379
 12   8        19.7684739807       786.1147875858     34393.0457202856         6.4596185672         7.1907774379
 12   9        20.0586814039       799.8711883912     35021.2681039248         6.4652663028         7.1930619470
 12  10        20.0586814039       799.8711883912     35021.2681039245         6.4652663028         7.1930619470
 12  11        19.6815484370       789.9093353840     35106.9625916033         6.5002135772         7.2071981195
 12  12        19.6815484370       789.9093353840     35106.9625916034         6.5002135772         7.2071981195
 13   1        43.6063868793      2212.8790257232    113841.1532547672         7.1480730963         7.4692572949
 13   2        43.6063868793      2212.8790257232    113841.1532547653         7.1480730963         7.4692572949
 13   3        43.8766338194      2216.6833757702    113505.5997051559         7.1317750205         7.4626647233
 13   4        43.8766338194      2216.6833757702    113505.5997051555         7.1317750205         7.4626647233
 13   5        20.2088088714       805.4556957508     35104.6760226855         6.4569639285         7.1897036366
 13   6        20.2088088714       805.4556957508     35104.6760226853         6.4569639285         7.1897036366
 13   7        20.3195163571       802.1102815109     34434.8591789961         6.4170429322         7.1735555935
 13   8        20.3195163571       802.1102815109     34434.8591789961         6.4170429322         7.1735555935
 13   9        20.6105174928       815.8744661384     35053.4864593070         6.4227539367         7.1758656949
 13  10        20.6105174928       815.8744661384     35053.4864593067         6.4227539367         7.1758656949
 13  11        20.1537036054       802.9900360499     35035.7290940712         6.4582330131         7.1902169813
 13  12        20.1537036054       802.9900360499     35035.7290940713         6.4582330131         7.1902169813
 13  13        20.7242829677       819.6886236462     35091.6189316778         6.4156060487         7.1729743742
 14   1        43.6063868793      2212.8790257232    113841.1532547671         7.1480730963         7.4692572949
 14   2        43.6063868793      2212.8790257232    113841.1532547651         7.1480730963         7.4692572949
 14   3        43.8766338194      2216.6833757702    113505.5997051557         7.1317750205         7.4626647233
 14   4        43.8766338194      2216.6833757702    113505.5997051553         7.1317750205         7.4626647233
 14   5        20.2088088714       805.4556957508     35104.6760226855         6.4569639285         7.1897036366
 14   6        20.2088088714       805.4556957508     35104.6760226853         6.4569639285         7.1897036366
 14   7        20.3195163571       802.1102815109     34434.8591789961         6.4170429322         7.1735555935
 14   8        20.3195163571       802.1102815109     34434.8591789961         6.4170429322         7.1735555935
 14   9        20.6105174928       815.8744661384     35053.4864593070         6.4227539367         7.1758656949
 14  10        20.6105174928       815.8744661384     35053.4864593067         6.4227539367         7.1758656949
 14  11        20.1537036054       802.9900360499     35035.7290940712         6.4582330131         7.1902169813
 14  12        20.1537036054       802.9900360499     35035.7290940713         6.4582330131         7.1902169813
 14  13        20.7242829677       819.6886236462     35091.6189316778         6.4156060487         7.1729743742
 14  14        20.7242829677       819.6886236462     35091.6189316778         6.4156060487         7.1729743742
 15   1        43.0104854586      2178.2280648700    111914.7191399122         7.1421685158         7.4668688921
 15   2        43.0104854586      2178.2280648699    111914.7191399103         7.1421685158         7.4668688921
 15   3        43.2780351270      2182.0032956196    111585.8920708419         7.1258596205         7.4602719440
 15   4        43.2780351270      2182.0032956195    111585.8920708416         7.1258596205         7.4602719440
 15   5        19.9411517698       792.7427089247     34509.4127322066         6.4509159711         7.1872572378
 15   6        19.9411517698       792.7427089247     34509.4127322064         6.4509159711         7.1872572378
 15   7        20.0568096170       789.6830378168     33860.0515031920         6.4109481649         7.1710902602
 15   8        20.0568096170       789.6830378169     33860.0515031920         6.4109481649         7.1710902602
 15   9        20.3433872994       803.2137058999     34467.2741072873         6.4166546639         7.1733985390
 15  10        20.3433872994       803.2137058999     34467.2741072870         6.4166546639         7.1733985390
 15  11        19.8862371604       790.2938545377     34440.8513848137         6.4521915900         7.1877732256
 15  12        19.8862371604       790.2938545377     34440.8513848138         6.4521915900         7.1877732256
 15  13        20.4571411324       807.0246216368     34506.7821223985         6.4094912778         7.1705009494
 15  14        20.4571411324       807.0246216368     34506.7821223985         6.4094912778         7.1705009494
 15  15        20.1941594118       794.5791011022     33932.7924787750         6.4033781593         7.1680281929
 16   1        43.0104854586      2178.2280648700    111914.7191399134         7.1421685158         7.4668688921
 16   2        43.0104854586      2178.2280648700    111914.7191399115         7.1421685158         7.4668688921
 16   3        43.2780351270      2182.0032956196    111585.8920708432         7.1258596205         7.4602719440
 16   4        43.2780351270      2182.0032956196    111585.8920708428         7.1258596205         7.4602719440
 16   5        19.9411517698       792.7427089247     34509.4127322070         6.4509159711         7.1872572378
 16   6        19.9411517698       792.7427089247     34509.4127322068         6.4509159711         7.1872572378
 16   7        20.0568096170       789.6830378169     33860.0515031924         6.4109481649         7.1710902602
 16   8        20.0568096170       789.6830378169     33860.0515031924         6.4109481649         7.1710902602
 16   9        20.3433872994       803.2137059000     34467.2741072877         6.4166546639         7.1733985390
 16  10        20.3433872994       803.2137058999     34467.2741072874         6.4166546639         7.1733985390
 16  11        19.8862371604       790.2938545377     34440.8513848141         6.4521915900         7.1877732256
 16  12        19.8862371604       790.2938545377     34440.8513848142         6.4521915900         7.1877732256
 16  13        20.4571411324       807.0246216368     34506.7821223990         6.4094912778         7.1705009494
 16  14        20.4571411324       807.0246216368     34506.7821223989         6.4094912778         7.1705009494
 16  15        20.1941594118       794.5791011022     33932.7924787754         6.4033781593         7.1680281929
 16  16        20.1941594118       794.5791011022     33932.7924787758         6.4033781593         7.1680281929
 17   1        42.8116815649      2172.7944291344    112051.4468831190         7.1526357274         7.4711028792
 17   2        42.8116815649      2172.7944291344    112051.4468831172         7.1526357274         7.4711028792
 17   3        43.0758626512      2176.4733219324    111720.7127436957         7.1363671705         7.4645222479
 17   4        43.0758626512      2176.4733219324    111720.7127436954         7.1363671705         7.4645222479
 17   5        19.8307777792       790.5016856439     34577.7127727793         6.4631189835         7.1921933563
 17   6        19.8307777792       790.5016856439     34577.7127727791         6.4631189835         7.1921933563
 17   7        19.9320817889       786.9299774538     33908.5810931289         6.4233038974         7.1760881540
 17   8        19.9320817889       786.9299774538     33908.5810931289         6.4233038974         7.1760881540
 17   9        20.2182894416       800.4632400233     34518.5918233137         6.4289972819         7.1783911280
 17  10        20.2182894416       800.4632400233     34518.5918233134         6.4289972819         7.1783911280
 17  11        19.7773199399       788.1064123770     34510.7750383643         6.4643857774         7.1927057745
 17  12        19.7773199399       788.1064123770     34510.7750383644         6.4643857774         7.1927057745
 17  13        20.3282194100       804.1393673985     34553.8815759931         6.4218670974         7.1755069684
 17  14        20.3282194100       804.1393673985     34553.8815759931         6.4218670974         7.1755069684
 17  15        20.0653648408       791.6836159484     33977.1012826455         6.4157706096         7.1730409391
 17  16        20.0653648408       791.6836159484     33977.1012826459         6.4157706096         7.1730409391
 17  17        19.9406592213       788.9220184559     34025.4762794163         6.4281136038         7.1780336802
 18   1        42.8116815649      2172.7944291344    112051.4468831182         7.1526357274         7.4711028792
 18   2        42.8116815649      2172.7944291344    112051.4468831164         7.1526357274         7.4711028792
 18   3        43.0758626512      2176.4733219324    111720.7127436950         7.1363671705         7.4645222479
 18   4        43.0758626512      2176.4733219324    111720.7127436946         7.1363671705         7.4645222479
 18   5        19.8307777792       790.5016856439     34577.7127727790         6.4631189835         7.1921933563
 18   6        19.8307777792       790.5016856439     34577.7127727788         6.4631189835         7.1921933563
 18   7        19.9320817889       786.9299774538     33908.5810931287         6.4233038974         7.1760881540
 18   8        19.9320817889       786.9299774538     33908.5810931286         6.4233038974         7.1760881540
 18   9        20.2182894416       800.4632400233     34518.5918233134         6.4289972819         7.1783911280
 18  10        20.2182894416       800.4632400233     34518.5918233132         6.4289972819         7.1783911280
 18  11        19.7773199399       788.1064123770     34510.7750383640         6.4643857774         7.1927057745
 18  12        19.7773199399       788.1064123770     34510.7750383641         6.4643857774         7.1927057745
 18  13        20.3282194100       804.1393673985     34553.8815759928         6.4218670974         7.1755069684
 18  14        20.3282194100       804.1393673985     34553.8815759928         6.4218670974         7.1755069684
 18  15        20.0653648408       791.6836159484     33977.1012826452         6.4157706096         7.1730409391
 18  16        20.0653648408       791.6836159484     33977.1012826456         6.4157706096         7.1730409391
 18  17        19.9406592213       788.9220184559     34025.4762794160         6.4281136038         7.1780336802
 18  18        19.9406592213       788.9220184559     34025.4762794157         6.4281136038         7.1780336802
 19   1        43.4770006622      2208.5326118067    113959.7741779749         7.1552567408         7.4721630791
 19   2        43.4770006622      2208.5326118067    113959.7741779730         7.1552567408         7.4721630791
 19   3        43.7444364226      2212.2378139869    113621.8842381517         7.1389930207         7.4655844044
 19   4        43.7444364226      2212.2378139868    113621.8842381513         7.1389930207         7.4655844044
 19   5        20.1317043085       803.4102910244     35161.1804886853         6.4658070644         7.1932806850
 19   6        20.1317043085       803.4102910244     35161.1804886851         6.4658070644         7.1932806850
 19   7        20.2290861797       799.5732592023     34472.2378010603         6.4260127983         7.1771839044
 19   8        20.2290861797       799.5732592023     34472.2378010602         6.4260127983         7.1771839044
 19   9        20.5201206275       813.3436295417     35093.3297759673         6.4317081197         7.1794876619
 19  10        20.5201206275       813.3436295417     35093.3297759670         6.4317081197         7.1794876619
 19  11        20.0778946742       800.9945370544     35093.8488780149         6.4670709820         7.1937919397
 19  12        20.0778946742       800.9945370544     35093.8488780150         6.4670709820         7.1937919397
 19  13        20.6304483424       817.0304553099     35127.2943060620         6.4245847859         7.1766062734
 19  14        20.6304483424       817.0304553099     35127.2943060620         6.4245847859         7.1766062734
 19  15        20.3630769553       804.3533714722     34539.9575021896         6.4184876161         7.1741399682
 19  16        20.3630769553       804.3533714722     34539.9575021900         6.4184876161         7.1741399682
 19  17        20.2378214361       801.5965668159     34591.0932983344         6.4308232258         7.1791297223
 19  18        20.2378214361       801.5965668159     34591.0932983341         6.4308232258         7.1791297223
 19  19        20.5399296460       814.4941968971     35166.9770052285         6.4335331281         7.1802258778
 20   1        43.4770006622      2208.5326118068    113959.7741779771         7.1552567408         7.4721630791
 20   2        43.4770006622      2208.5326118067    113959.7741779752         7.1552567408         7.4721630791
 20   3        43.7444364226      2212.2378139869    113621.8842381540         7.1389930207         7.4655844044
 20   4        43.7444364226      2212.2378139869    113621.8842381536         7.1389930207         7.4655844044
 20   5        20.1317043085       803.4102910244     35161.1804886860         6.4658070644         7.1932806850
 20   6        20.1317043085       803.4102910244     35161.1804886859         6.4658070644         7.1932806850
 20   7        20.2290861797       799.5732592023     34472.2378010610         6.4260127983         7.1771839044
 20   8        20.2290861797       799.5732592023     34472.2378010610         6.4260127983         7.1771839044
 20   9        20.5201206275       813.3436295417     35093.3297759680         6.4317081197         7.1794876619
 20  10        20.5201206275       813.3436295417     35093.3297759677         6.4317081197         7.1794876619
 20  11        20.0778946742       800.9945370544     35093.8488780157         6.4670709820         7.1937919397
 20  12        20.0778946742       800.9945370544     35093.8488780158         6.4670709820         7.1937919397
[...]
  Evdw   =  -1.506446585985E-01 Hartree,  -3.012893171969E-01 Ry
  Evdw6 =  -6.987246712210E-02 Hartree,  -1.397449342442E-01 Ry
  Evdw8 =  -4.513654491461E-02 Hartree,  -9.027308982923E-02 Ry
  Evdw10 =  -3.563564656176E-02 Hartree,  -7.127129312353E-02 Ry
  Evdw9  =   0.000000000000E+00 Hartree,   0.000000000000E+00 Ry
  Fvdw (01) =   1.411847286592E-05  -4.222508645549E-04  -4.829775856532E-05  Hartree/bohr
            =   2.823694573184E-05  -8.445017291098E-04  -9.659551713063E-05  Ry/bohr
  Fvdw (02) =   1.411847286593E-05   4.222508645549E-04  -4.829775856531E-05  Hartree/bohr
            =   2.823694573187E-05   8.445017291098E-04  -9.659551713062E-05  Ry/bohr
  Fvdw (03) =   1.553166084133E-04   6.468767341531E-04  -5.629140418684E-04  Hartree/bohr
            =   3.106332168265E-04   1.293753468306E-03  -1.125828083737E-03  Ry/bohr
  Fvdw (04) =   1.553166084133E-04  -6.468767341530E-04  -5.629140418684E-04  Hartree/bohr
            =   3.106332168265E-04  -1.293753468306E-03  -1.125828083737E-03  Ry/bohr
  Fvdw (05) =   2.912681653191E-04   5.193564100377E-05   2.217587596713E-04  Hartree/bohr
            =   5.825363306382E-04   1.038712820075E-04   4.435175193426E-04  Ry/bohr
  Fvdw (06) =   2.912681653191E-04  -5.193564100378E-05   2.217587596713E-04  Hartree/bohr
            =   5.825363306382E-04  -1.038712820076E-04   4.435175193426E-04  Ry/bohr
  Fvdw (07) =  -1.847883713107E-04   1.352043363808E-04   1.158555947436E-04  Hartree/bohr
            =  -3.695767426215E-04   2.704086727616E-04   2.317111894871E-04  Ry/bohr
  Fvdw (08) =  -1.847883713107E-04  -1.352043363808E-04   1.158555947436E-04  Hartree/bohr
            =  -3.695767426215E-04  -2.704086727616E-04   2.317111894871E-04  Ry/bohr
  Fvdw (09) =  -3.389376510276E-04   2.174767648695E-05  -1.684436582544E-04  Hartree/bohr
            =  -6.778753020552E-04   4.349535297389E-05  -3.368873165089E-04  Ry/bohr
  Fvdw (10) =  -3.389376510276E-04  -2.174767648694E-05  -1.684436582544E-04  Hartree/bohr
            =  -6.778753020552E-04  -4.349535297389E-05  -3.368873165089E-04  Ry/bohr
  Fvdw (11) =  -2.089565033428E-04   1.465150955605E-04  -6.814614623417E-06  Hartree/bohr
            =  -4.179130066855E-04   2.930301911209E-04  -1.362922924683E-05  Ry/bohr
  Fvdw (12) =  -2.089565033428E-04  -1.465150955605E-04  -6.814614623415E-06  Hartree/bohr
            =  -4.179130066855E-04  -2.930301911209E-04  -1.362922924683E-05  Ry/bohr
  Fvdw (13) =   4.759830554696E-04   1.122160583663E-05   1.850035859377E-04  Hartree/bohr
            =   9.519661109393E-04   2.244321167326E-05   3.700071718754E-04  Ry/bohr
  Fvdw (14) =   4.759830554696E-04  -1.122160583663E-05   1.850035859377E-04  Hartree/bohr
            =   9.519661109393E-04  -2.244321167326E-05   3.700071718754E-04  Ry/bohr
  Fvdw (15) =   4.823418249292E-05   1.699544014666E-04   2.541184464117E-04  Hartree/bohr
            =   9.646836498583E-05   3.399088029333E-04   5.082368928233E-04  Ry/bohr
  Fvdw (16) =   4.823418249292E-05  -1.699544014666E-04   2.541184464117E-04  Hartree/bohr
            =   9.646836498583E-05  -3.399088029333E-04   5.082368928233E-04  Ry/bohr
  Fvdw (17) =   8.270118286449E-05   1.702757027995E-04   2.247763285986E-04  Hartree/bohr
            =   1.654023657290E-04   3.405514055989E-04   4.495526571972E-04  Ry/bohr
  Fvdw (18) =   8.270118286449E-05  -1.702757027995E-04   2.247763285986E-04  Hartree/bohr
            =   1.654023657290E-04  -3.405514055989E-04   4.495526571972E-04  Ry/bohr
  Fvdw (19) =   3.699390685190E-04   1.168075561703E-04   2.265203383188E-06  Hartree/bohr
            =   7.398781370380E-04   2.336151123407E-04   4.530406766376E-06  Ry/bohr
  Fvdw (20) =   3.699390685190E-04  -1.168075561703E-04   2.265203383194E-06  Hartree/bohr
            =   7.398781370380E-04  -2.336151123407E-04   4.530406766388E-06  Ry/bohr
  Fvdw (21) =   2.210608097599E-04   1.702779605128E-04   1.131664314642E-04  Hartree/bohr
            =   4.421216195198E-04   3.405559210257E-04   2.263328629284E-04  Ry/bohr
  Fvdw (22) =   2.210608097599E-04  -1.702779605128E-04   1.131664314642E-04  Hartree/bohr
            =   4.421216195198E-04  -3.405559210257E-04   2.263328629284E-04  Ry/bohr
  Fvdw (23) =  -3.160527547206E-04   6.162979052987E-05   6.147467391563E-05  Hartree/bohr
            =  -6.321055094412E-04   1.232595810597E-04   1.229493478313E-04  Ry/bohr
  Fvdw (24) =  -3.160527547206E-04  -6.162979052987E-05   6.147467391564E-05  Hartree/bohr
            =  -6.321055094412E-04  -1.232595810597E-04   1.229493478313E-04  Ry/bohr
  Fvdw (25) =  -4.850266952959E-04   4.449609886379E-05  -7.768156079728E-05  Hartree/bohr
            =  -9.700533905917E-04   8.899219772758E-05  -1.553631215946E-04  Ry/bohr
  Fvdw (26) =  -4.850266952958E-04  -4.449609886379E-05  -7.768156079727E-05  Hartree/bohr
            =  -9.700533905917E-04  -8.899219772757E-05  -1.553631215945E-04  Ry/bohr
  Fvdw (27) =  -1.844951872589E-04   1.810149819720E-04   6.797872334150E-05  Hartree/bohr
            =  -3.689903745179E-04   3.620299639439E-04   1.359574466830E-04  Ry/bohr
  Fvdw (28) =  -1.844951872589E-04  -1.810149819720E-04   6.797872334150E-05  Hartree/bohr
            =  -3.689903745179E-04  -3.620299639440E-04   1.359574466830E-04  Ry/bohr
  Fvdw (29) =   1.238731797220E-04  -3.720521885165E-05   6.858271843944E-05  Hartree/bohr
            =   2.477463594439E-04  -7.441043770331E-05   1.371654368789E-04  Ry/bohr
  Fvdw (30) =   1.238731797220E-04   3.720521885166E-05   6.858271843944E-05  Hartree/bohr
            =   2.477463594439E-04   7.441043770331E-05   1.371654368789E-04  Ry/bohr
  Fvdw (31) =  -1.436153099121E-05   8.414266426470E-05   2.514703818841E-05  Hartree/bohr
            =  -2.872306198242E-05   1.682853285294E-04   5.029407637682E-05  Ry/bohr
  Fvdw (32) =  -1.436153099121E-05  -8.414266426470E-05   2.514703818841E-05  Hartree/bohr
            =  -2.872306198242E-05  -1.682853285294E-04   5.029407637682E-05  Ry/bohr
  Fvdw (33) =   1.954344800179E-05  -3.341084456040E-05   6.128559168397E-05  Hartree/bohr
            =   3.908689600358E-05  -6.682168912079E-05   1.225711833679E-04  Ry/bohr
  Fvdw (34) =   1.954344800179E-05   3.341084456040E-05   6.128559168397E-05  Hartree/bohr
            =   3.908689600358E-05   6.682168912079E-05   1.225711833679E-04  Ry/bohr
  Fvdw (35) =   1.038849904127E-04  -1.129706252191E-05  -1.805738987105E-05  Hartree/bohr
            =   2.077699808255E-04  -2.259412504383E-05  -3.611477974210E-05  Ry/bohr
  Fvdw (36) =   1.038849904127E-04   1.129706252191E-05  -1.805738987105E-05  Hartree/bohr
            =   2.077699808255E-04   2.259412504382E-05  -3.611477974210E-05  Ry/bohr
  Fvdw (37) =  -1.398806118311E-04  -2.525586162369E-05   1.017264136209E-05  Hartree/bohr
            =  -2.797612236621E-04  -5.051172324738E-05   2.034528272419E-05  Ry/bohr
  Fvdw (38) =  -1.398806118311E-04   2.525586162369E-05   1.017264136209E-05  Hartree/bohr
            =  -2.797612236621E-04   5.051172324738E-05   2.034528272419E-05  Ry/bohr
  Fvdw (39) =  -1.459979050198E-05   5.627611036243E-05   1.114662292275E-05  Hartree/bohr
            =  -2.919958100395E-05   1.125522207249E-04   2.229324584550E-05  Ry/bohr
  Fvdw (40) =  -1.459979050198E-05  -5.627611036243E-05   1.114662292275E-05  Hartree/bohr
            =  -2.919958100395E-05  -1.125522207249E-04   2.229324584550E-05  Ry/bohr
  Fvdw (41) =  -3.834649560743E-05  -8.879762671227E-06   3.407904929765E-05  Hartree/bohr
            =  -7.669299121486E-05  -1.775952534245E-05   6.815809859531E-05  Ry/bohr
  Fvdw (42) =  -3.834649560743E-05   8.879762671227E-06   3.407904929766E-05  Hartree/bohr
            =  -7.669299121486E-05   1.775952534245E-05   6.815809859531E-05  Ry/bohr
  Fvdw (43) =  -1.121177148844E-04  -2.639386174729E-05  -5.899323575281E-05  Hartree/bohr
            =  -2.242354297688E-04  -5.278772349459E-05  -1.179864715056E-04  Ry/bohr
  Fvdw (44) =  -1.121177148844E-04   2.639386174729E-05  -5.899323575281E-05  Hartree/bohr
            =  -2.242354297689E-04   5.278772349459E-05  -1.179864715056E-04  Ry/bohr
  Fvdw (45) =   1.316401429319E-04   2.295627916651E-04  -5.156091496290E-04  Hartree/bohr
            =   2.632802858637E-04   4.591255833301E-04  -1.031218299258E-03  Ry/bohr
  Fvdw (46) =   1.316401429319E-04  -2.295627916651E-04  -5.156091496290E-04  Hartree/bohr
            =   2.632802858637E-04  -4.591255833301E-04  -1.031218299258E-03  Ry/bohr
  sigma_vdw (Hy/bohr**3) =  -3.851618823904E-05  -1.270420524653E-20   7.434381752921E-07  
                            -1.270420524653E-20  -3.547309404500E-05   1.868342439964E-20  
                             7.434381752921E-07   1.868342439964E-20  -4.004279336036E-05  
  sigma_vdw (Ry/bohr**3) =  -7.703237647808E-05  -2.540841049306E-20   1.486876350584E-06  
                            -2.540841049306E-20  -7.094618808999E-05   3.736684879927E-20  
                             1.486876350584E-06   3.736684879927E-20  -8.008558672072E-05  
  sigma_vdw (GPa) =  -1.133185190299E+00  -3.737705598109E-16   2.187270258717E-02  
                     -3.737705598109E-16  -1.043654283139E+00   5.496852311122E-16  
                      2.187270258717E-02   5.496852311122E-16  -1.178099456066E+00  
 
 TIME (final):      411.9

!    total energy              =   -1306.15677882 Ry
     Harris-Foulkes estimate   =   -1306.15677883 Ry
     estimated scf accuracy    <          5.0E-09 Ry

     total all-electron energy =    -21540.571434 Ry

     The total energy is the sum of the following terms:

     one-electron contribution =    -302.15038602 Ry
     hartree contribution      =     204.11924934 Ry
     xc contribution           =    -161.97755537 Ry
     ewald contribution        =    -157.01472852 Ry
     Dispersion XDM Correction =      -0.30128932 Ry
     Uncorrected (XDM) energy  =   -1305.85548951 Ry
     one-center paw contrib.   =    -888.83206894 Ry

     convergence has been achieved in  78 iterations

     Forces acting on atoms (Ry/au):

     atom    1 type  3   force =     0.00017656   -0.00037414   -0.00045100
     atom    2 type  3   force =     0.00017656    0.00037414   -0.00045100
     atom    3 type  3   force =    -0.00020825    0.00049485   -0.00004399
     atom    4 type  3   force =    -0.00020825   -0.00049485   -0.00004399
     atom    5 type  1   force =     0.00011014    0.00001811   -0.00024954
     atom    6 type  1   force =     0.00011014   -0.00001811   -0.00024954
     atom    7 type  1   force =    -0.00003799    0.00032365    0.00020934
     atom    8 type  1   force =    -0.00003799   -0.00032365    0.00020934
     atom    9 type  1   force =     0.00005677    0.00014716   -0.00035315
     atom   10 type  1   force =     0.00005677   -0.00014716   -0.00035315
     atom   11 type  1   force =     0.00001080   -0.00011431   -0.00053069
     atom   12 type  1   force =     0.00001080    0.00011431   -0.00053069
     atom   13 type  1   force =     0.00004228   -0.00014007    0.00001687
     atom   14 type  1   force =     0.00004228    0.00014007    0.00001687
     atom   15 type  1   force =    -0.00012280    0.00038286    0.00010169
     atom   16 type  1   force =    -0.00012280   -0.00038286    0.00010169
     atom   17 type  1   force =    -0.00031202    0.00006241    0.00038682
     atom   18 type  1   force =    -0.00031202   -0.00006241    0.00038682
     atom   19 type  1   force =     0.00002873    0.00010774   -0.00024960
     atom   20 type  1   force =     0.00002873   -0.00010774   -0.00024960
     atom   21 type  1   force =     0.00012019   -0.00021935   -0.00008324
     atom   22 type  1   force =     0.00012019    0.00021935   -0.00008324
     atom   23 type  1   force =    -0.00002931   -0.00013968   -0.00051019
     atom   24 type  1   force =    -0.00002931    0.00013968   -0.00051019
     atom   25 type  1   force =    -0.00010663   -0.00001940    0.00012204
     atom   26 type  1   force =    -0.00010663    0.00001940    0.00012204
     atom   27 type  1   force =    -0.00021350    0.00013976    0.00031283
     atom   28 type  1   force =    -0.00021350   -0.00013976    0.00031283
     atom   29 type  2   force =     0.00006618   -0.00025562    0.00009603
     atom   30 type  2   force =     0.00006618    0.00025562    0.00009603
     atom   31 type  2   force =    -0.00012515   -0.00000200    0.00059798
     atom   32 type  2   force =    -0.00012515    0.00000200    0.00059798
     atom   33 type  2   force =    -0.00006112    0.00068012    0.00074493
     atom   34 type  2   force =    -0.00006112   -0.00068012    0.00074493
     atom   35 type  2   force =     0.00015880    0.00022728   -0.00052789
     atom   36 type  2   force =     0.00015880   -0.00022728   -0.00052789
     atom   37 type  2   force =    -0.00022692   -0.00005144    0.00042686
     atom   38 type  2   force =    -0.00022692    0.00005144    0.00042686
     atom   39 type  2   force =     0.00010516    0.00017126    0.00057838
     atom   40 type  2   force =     0.00010516   -0.00017126    0.00057838
     atom   41 type  2   force =     0.00016896    0.00058922    0.00037985
     atom   42 type  2   force =     0.00016896   -0.00058922    0.00037985
     atom   43 type  2   force =     0.00030261    0.00018015   -0.00073982
     atom   44 type  2   force =     0.00030261   -0.00018015   -0.00073982
     atom   45 type  4   force =     0.00009650    0.00040991   -0.00023450
     atom   46 type  4   force =     0.00009650   -0.00040991   -0.00023450

     Total force =     0.003537     Total SCF correction =     0.000142

     Total XDM Dispersion Force =     0.004803

     XDM Dispersion forces acting on atoms:
     atom    1 type  3   force =     0.00002824   -0.00084450   -0.00009660
     atom    2 type  3   force =     0.00002824    0.00084450   -0.00009660
     atom    3 type  3   force =     0.00031063    0.00129375   -0.00112583
     atom    4 type  3   force =     0.00031063   -0.00129375   -0.00112583
     atom    5 type  1   force =     0.00058254    0.00010387    0.00044352
     atom    6 type  1   force =     0.00058254   -0.00010387    0.00044352
     atom    7 type  1   force =    -0.00036958    0.00027041    0.00023171
     atom    8 type  1   force =    -0.00036958   -0.00027041    0.00023171
     atom    9 type  1   force =    -0.00067788    0.00004350   -0.00033689
     atom   10 type  1   force =    -0.00067788   -0.00004350   -0.00033689
     atom   11 type  1   force =    -0.00041791    0.00029303   -0.00001363
     atom   12 type  1   force =    -0.00041791   -0.00029303   -0.00001363
     atom   13 type  1   force =     0.00095197    0.00002244    0.00037001
     atom   14 type  1   force =     0.00095197   -0.00002244    0.00037001
     atom   15 type  1   force =     0.00009647    0.00033991    0.00050824
     atom   16 type  1   force =     0.00009647   -0.00033991    0.00050824
     atom   17 type  1   force =     0.00016540    0.00034055    0.00044955
     atom   18 type  1   force =     0.00016540   -0.00034055    0.00044955
     atom   19 type  1   force =     0.00073988    0.00023362    0.00000453
     atom   20 type  1   force =     0.00073988   -0.00023362    0.00000453
     atom   21 type  1   force =     0.00044212    0.00034056    0.00022633
     atom   22 type  1   force =     0.00044212   -0.00034056    0.00022633
     atom   23 type  1   force =    -0.00063211    0.00012326    0.00012295
     atom   24 type  1   force =    -0.00063211   -0.00012326    0.00012295
     atom   25 type  1   force =    -0.00097005    0.00008899   -0.00015536
     atom   26 type  1   force =    -0.00097005   -0.00008899   -0.00015536
     atom   27 type  1   force =    -0.00036899    0.00036203    0.00013596
     atom   28 type  1   force =    -0.00036899   -0.00036203    0.00013596
     atom   29 type  2   force =     0.00024775   -0.00007441    0.00013717
     atom   30 type  2   force =     0.00024775    0.00007441    0.00013717
     atom   31 type  2   force =    -0.00002872    0.00016829    0.00005029
     atom   32 type  2   force =    -0.00002872   -0.00016829    0.00005029
     atom   33 type  2   force =     0.00003909   -0.00006682    0.00012257
     atom   34 type  2   force =     0.00003909    0.00006682    0.00012257
     atom   35 type  2   force =     0.00020777   -0.00002259   -0.00003611
     atom   36 type  2   force =     0.00020777    0.00002259   -0.00003611
     atom   37 type  2   force =    -0.00027976   -0.00005051    0.00002035
     atom   38 type  2   force =    -0.00027976    0.00005051    0.00002035
     atom   39 type  2   force =    -0.00002920    0.00011255    0.00002229
     atom   40 type  2   force =    -0.00002920   -0.00011255    0.00002229
     atom   41 type  2   force =    -0.00007669   -0.00001776    0.00006816
     atom   42 type  2   force =    -0.00007669    0.00001776    0.00006816
     atom   43 type  2   force =    -0.00022424   -0.00005279   -0.00011799
     atom   44 type  2   force =    -0.00022424    0.00005279   -0.00011799
     atom   45 type  4   force =     0.00026328    0.00045913   -0.00103122
     atom   46 type  4   force =     0.00026328   -0.00045913   -0.00103122


     entering subroutine stress ...

          total   stress  (Ry/bohr**3)                   (kbar)     P=    0.14
  -0.00000125   0.00000000  -0.00000103         -0.18      0.00     -0.15
   0.00000000   0.00000214   0.00000000          0.00      0.31      0.00
  -0.00000103   0.00000000   0.00000202         -0.15      0.00      0.30


     Writing output data file epxars_2.save
 
     init_run     :     65.40s CPU     65.60s WALL (       2 calls)
     electrons    :   6918.77s CPU   6952.67s WALL (       2 calls)
     forces       :     47.77s CPU     47.85s WALL (       2 calls)
     stress       :     96.62s CPU     96.79s WALL (       2 calls)

     Called by init_run:
     wfcinit      :     21.27s CPU     21.38s WALL (       2 calls)
     potinit      :     17.98s CPU     18.02s WALL (       2 calls)

     Called by electrons:
     c_bands      :   3040.95s CPU   3067.56s WALL (     186 calls)
     sum_band     :   2395.50s CPU   2400.45s WALL (     186 calls)
     v_of_rho     :    231.48s CPU    231.73s WALL (     188 calls)
     newd         :    585.10s CPU    585.87s WALL (     188 calls)
     mix_rho      :    128.86s CPU    128.99s WALL (     186 calls)

     Called by c_bands:
     init_us_2    :     15.19s CPU     15.24s WALL (     756 calls)
     cegterg      :   3003.62s CPU   3025.74s WALL (     372 calls)

     Called by *egterg:
     h_psi        :   2598.72s CPU   2601.33s WALL (    1721 calls)
     s_psi        :    124.33s CPU    124.37s WALL (    1721 calls)
     g_psi        :      6.52s CPU      6.53s WALL (    1345 calls)
     cdiaghg      :     28.61s CPU     28.63s WALL (    1717 calls)

     Called by h_psi:
     add_vuspsi   :    125.30s CPU    125.33s WALL (    1721 calls)

     General routines
     calbec       :    179.34s CPU    179.44s WALL (    2101 calls)
     fft          :    226.96s CPU    227.28s WALL (    5502 calls)
     ffts         :     14.94s CPU     14.95s WALL (     748 calls)
     fftw         :   3704.61s CPU   3707.96s WALL (  253988 calls)
     interpolate  :     49.58s CPU     49.62s WALL (     748 calls)
     davcio       :      0.02s CPU      6.95s WALL (    1128 calls)
 
     Parallel routines
     fft_scatter  :    330.44s CPU    331.36s WALL (  260238 calls)
 
     PAW routines
     PAW_pot      :     96.05s CPU     96.07s WALL (     188 calls)
     PAW_ddot     :     72.59s CPU     72.62s WALL (    7802 calls)
     PAW_symme    :      0.03s CPU      0.02s WALL (     374 calls)
 
     PWSCF        :     1h58m CPU        1h59m WALL

 
   This run was terminated on:  21:55:26  15Oct2012            

=------------------------------------------------------------------------------=
   JOB DONE.
=------------------------------------------------------------------------------=
