
     Program PWSCF v.4.3.2      starts on 18Oct2012 at 17:33:12 

     This program is part of the open-source Quantum ESPRESSO suite
     for quantum simulation of materials; please cite
         "P. Giannozzi et al., J. Phys.:Condens. Matter 21 395502 (2009);
          URL http://www.quantum-espresso.org", 
     in publications or presentations arising from this work. More details at
     http://www.quantum-espresso.org/wiki/index.php/Citing_Quantum-ESPRESSO

     Parallel version (MPI), running on    12 processors
     R & G space division:  proc/pool =   12

     Current dimensions of program PWSCF are:
     Max number of different atomic species (ntypx) = 10
     Max number of k-points (npk) =  40000
     Max angular momentum in pseudopotentials (lmaxx) =  3
     Waiting for input...
     Reading input from stdin
               file c.UPF: wavefunction(s)  2P renormalized
               file o.UPF: wavefunction(s)  2P renormalized
               file sb.UPF: wavefunction(s)  5S 5P renormalized
               file f.UPF: wavefunction(s)  2S 2P renormalized

     Subspace diagonalization in iterative solution of the eigenvalue problem:
     a serial algorithm will be used

 
     Parallelization info
     --------------------
     sticks:   dense  smooth     PW     G-vecs:    dense   smooth      PW
     Min         712     475    124                42620    23186    3108
     Max         713     476    125                42622    23228    3109
     Sum        8553    5701   1495               511451   278431   37299
 

     Title: 
     epxars_2                                                                   


     bravais-lattice index     =            0
     lattice parameter (alat)  =       1.0000  a.u.
     unit-cell volume          =    4434.2037 (a.u.)^3
     number of atoms/cell      =           46
     number of atomic types    =            4
     number of electrons       =       240.00
     number of Kohn-Sham states=          120
     kinetic-energy cutoff     =      60.0000  Ry
     charge density cutoff     =     360.0000  Ry
     convergence threshold     =      1.0E-08
     mixing beta               =       0.7000
     number of iterations used =            8  plain     mixing
     Exchange-correlation      =  NOX  PW   PW86 PBC ( 0 417 4 0)
     EXX-fraction              =        0.00
     nstep                     =           50


     celldm(1)=   1.000000  celldm(2)=   0.000000  celldm(3)=   0.000000
     celldm(4)=   0.000000  celldm(5)=   0.000000  celldm(6)=   0.000000

     crystal axes: (cart. coord. in units of alat)
               a(1) = (  21.208018   0.000000   0.874539 )  
               a(2) = (   0.000000  14.067589   0.000000 )  
               a(3) = (  -3.740898   0.000000  14.708376 )  

     reciprocal axes: (cart. coord. in units 2 pi/alat)
               b(1) = (  0.046663  0.000000  0.011868 )  
               b(2) = (  0.000000  0.071085  0.000000 )  
               b(3) = ( -0.002774  0.000000  0.067283 )  


     PseudoPot. # 1 for  C read from file:
     ./c.UPF
     MD5 check sum: 59d3a4af416b94ce846c69cefa103580
     Pseudo is Projector augmented-wave + core cor, Zval =  4.0
     Generated using "atomic" code by A. Dal Corso  (Quantum ESPRESSO distribution)
     Shape of augmentation charge: BESSEL
     Using radial grid of 1073 points,  4 beta functions with: 
                l(1) =   0
                l(2) =   0
                l(3) =   1
                l(4) =   1
     Q(r) pseudized with 0 coefficients 


     PseudoPot. # 2 for  O read from file:
     ./o.UPF
     MD5 check sum: 7b405463629fa2aaa019ec68516902cf
     Pseudo is Projector augmented-wave + core cor, Zval =  6.0
     Generated using "atomic" code by A. Dal Corso  (Quantum ESPRESSO distribution)
     Shape of augmentation charge: BESSEL
     Using radial grid of 1095 points,  4 beta functions with: 
                l(1) =   0
                l(2) =   0
                l(3) =   1
                l(4) =   1
     Q(r) pseudized with 0 coefficients 


     PseudoPot. # 3 for Sb read from file:
     ./sb.UPF
     MD5 check sum: eafba98ab4c7605221bb994336090a42
     Pseudo is Projector augmented-wave + core cor, Zval =  5.0
     Generated using "atomic" code by A. Dal Corso  (Quantum ESPRESSO distribution)
     Shape of augmentation charge: PSQ
     Using radial grid of 1243 points,  4 beta functions with: 
                l(1) =   0
                l(2) =   0
                l(3) =   1
                l(4) =   1
     Q(r) pseudized with 0 coefficients 


     PseudoPot. # 4 for  F read from file:
     ./f.UPF
     MD5 check sum: 8cc698429acbef515959d6d1ea0e1135
     Pseudo is Projector augmented-wave + core cor, Zval =  7.0
     Generated using "atomic" code by A. Dal Corso  (Quantum ESPRESSO distribution)
     Shape of augmentation charge: PSQ
     Using radial grid of 1105 points,  4 beta functions with: 
                l(1) =   0
                l(2) =   0
                l(3) =   1
                l(4) =   1
     Q(r) pseudized with 0 coefficients 


     atomic species   valence    mass     pseudopotential
        c              4.00    12.01070      C( 1.00)
        o              6.00    15.99940      O( 1.00)
        sb             5.00   121.76000     Sb( 1.00)
        f              7.00    18.99840      F( 1.00)

      2 Sym.Ops. (no inversion)


   Cartesian axes

     site n.     atom                  positions (alat units)
         1           sb  tau(   1) = (  -1.9366194  13.3383679   7.5083478  )
         2           sb  tau(   2) = (  -3.8070684   0.7292216  14.8625360  )
         3           sb  tau(   3) = (  19.8466768   5.5011486   6.0596199  )
         4           sb  tau(   4) = (  17.9762278   8.5664408  13.4138081  )
         5           c   tau(   5) = (  16.0163492   1.9014182   8.6724524  )
         6           c   tau(   6) = (  17.8867982  12.1661713   1.3182642  )
         7           c   tau(   7) = (   4.0875833   5.3888994  11.6197883  )
         8           c   tau(   8) = (   5.9580322   8.6786900   4.2656001  )
         9           c   tau(   9) = (   2.4974227   6.1160054   9.6557155  )
        10           c   tau(  10) = (   4.3678717   7.9515841   2.3015273  )
        11           c   tau(  11) = (   0.8616583   4.4356236   8.5178476  )
        12           c   tau(  12) = (   2.7321073   9.6319658   1.1636594  )
        13           c   tau(  13) = (  13.6670305   1.1376572   9.5534018  )
        14           c   tau(  14) = (  15.5374795  12.9299322   2.1992136  )
        15           c   tau(  15) = (  11.6838846   2.8508489   9.8691080  )
        16           c   tau(  16) = (  13.5543336  11.2167406   2.5149198  )
        17           c   tau(  17) = (  12.0418482   5.3910701   9.2803677  )
        18           c   tau(  18) = (  13.9122972   8.6765193   1.9261795  )
        19           c   tau(  19) = (  14.3583535   6.1228518   8.2697216  )
        20           c   tau(  20) = (  16.2288025   7.9447376   0.9155334  )
        21           c   tau(  21) = (  16.3180399   4.4305669   7.9649773  )
        22           c   tau(  22) = (  14.4475910   9.6370226  15.3191655  )
        23           c   tau(  23) = (   0.7679218   1.9186097   9.3228970  )
        24           c   tau(  24) = (   2.6383708  12.1489798   1.9687088  )
        25           c   tau(  25) = (   2.4080795   1.1694625  11.2277313  )
        26           c   tau(  26) = (   4.2785285  12.8981270   3.8735431  )
        27           c   tau(  27) = (   4.0376340   2.8785979  12.4143307  )
        28           c   tau(  28) = (   5.9080830  11.1889916   5.0601425  )
        29           f   tau(  29) = (  13.1619873  12.7533937  10.1387887  )
        30           f   tau(  30) = (  15.0324362   1.3141957   2.7846005  )
        31           f   tau(  31) = (   9.4355638   2.0655357  10.7735457  )
        32           f   tau(  32) = (  11.3060127  12.0020537   3.4193575  )
        33           f   tau(  33) = (  10.1947184   7.0842083   9.7213255  )
        34           f   tau(  34) = (  12.0651674   6.9833811   2.3671374  )
        35           f   tau(  35) = (  14.6683194   8.6116953   7.6032348  )
        36           f   tau(  36) = (  12.7978704   5.4558941  14.9574230  )
        37           f   tau(  37) = (   2.5358411  12.7916675  12.0238593  )
        38           f   tau(  38) = (   4.4062901   1.2759219   4.6696711  )
        39           f   tau(  39) = (   5.5310032   2.1197829  14.3300584  )
        40           f   tau(  40) = (   7.4014522  11.9478066   6.9758702  )
        41           f   tau(  41) = (   5.6179561   7.0786264  12.7502241  )
        42           f   tau(  42) = (   7.4884051   6.9889631   5.3960359  )
        43           f   tau(  43) = (   2.5769280   8.5938085   8.8859756  )
        44           f   tau(  44) = (   4.4473770   5.4737810   1.5317874  )
        45           o   tau(  45) = (  -1.0958895   1.7786302   4.1443155  )
        46           o   tau(  46) = (  -2.9663385  12.2889592  11.4985037  )

     number of k points=     2
                       cart. coord. in units 2pi/alat
        k(    1) = (   0.0109720   0.0177713   0.0197877), wk =   1.0000000
        k(    2) = (   0.0123593   0.0177713  -0.0138537), wk =   1.0000000

     Dense  grid:   511451 G-vectors     FFT dimensions: ( 135,  90,  96)

     Smooth grid:   278431 G-vectors     FFT dimensions: ( 108,  72,  75)

     Largest allocated arrays     est. size (Mb)     dimensions
        Kohn-Sham Wavefunctions         5.31 Mb     (   2902,  120)
        NL pseudopotentials            16.30 Mb     (   2902,  368)
        Each V/rho on FFT grid          1.48 Mb     (  97200)
        Each G-vector array             0.33 Mb     (  42622)
        G-vector shells                 0.33 Mb     (  42622)
     Largest temporary arrays     est. size (Mb)     dimensions
        Auxiliary wavefunctions        21.25 Mb     (   2902,  480)
        Each subspace H/S matrix        3.52 Mb     ( 480, 480)
        Each <psi_i|beta_j> matrix      0.67 Mb     (    368,  120)
        Arrays for rho mixing          11.87 Mb     (  97200,   8)

     Check: negative/imaginary core charge=   -0.000033    0.000000

     Initial potential from superposition of free atoms

     starting charge  239.99657, renormalised to  240.00000
     Starting wfc are  184 atomic wfcs
     Checking if some PAW data can be deallocated... 

     total cpu time spent up to now is       17.9 secs

     per-process dynamical memory:    84.9 Mb

     Self-consistent Calculation

     iteration #  1     ecut=    60.00 Ry     beta=0.70
     Davidson diagonalization with overlap
     ethr =  1.00E-02,  avg # of iterations =  4.0

     total cpu time spent up to now is       34.2 secs

     total energy              =   -2875.35765774 Ry
     Harris-Foulkes estimate   =   -2879.51317286 Ry
     estimated scf accuracy    <    1653.51867881 Ry

     iteration #  2     ecut=    60.00 Ry     beta=0.70
     Davidson diagonalization with overlap
     ethr =  1.00E-02,  avg # of iterations =  5.0

     total cpu time spent up to now is       49.0 secs

     total energy              =   -2872.39885983 Ry
     Harris-Foulkes estimate   =   -2879.25198552 Ry
     estimated scf accuracy    <     183.04827134 Ry

     iteration #  3     ecut=    60.00 Ry     beta=0.70
     Davidson diagonalization with overlap
     ethr =  1.00E-02,  avg # of iterations =  5.0

     total cpu time spent up to now is       71.3 secs

     total energy              =   -2870.09575862 Ry
     Harris-Foulkes estimate   =   -2890.23660165 Ry
     estimated scf accuracy    <      79.13983366 Ry

     iteration #  4     ecut=    60.00 Ry     beta=0.70
     Davidson diagonalization with overlap
     ethr =  1.00E-02,  avg # of iterations =  5.5

     total cpu time spent up to now is       89.0 secs

     total energy              =   -2877.25155356 Ry
     Harris-Foulkes estimate   =   -2878.76997945 Ry
     estimated scf accuracy    <       5.60160435 Ry

     iteration #  5     ecut=    60.00 Ry     beta=0.70
     Davidson diagonalization with overlap
     ethr =  2.33E-03,  avg # of iterations =  2.0

     total cpu time spent up to now is      102.2 secs

     total energy              =   -2876.84009731 Ry
     Harris-Foulkes estimate   =   -2877.46198262 Ry
     estimated scf accuracy    <       1.62127134 Ry

     iteration #  6     ecut=    60.00 Ry     beta=0.70
     Davidson diagonalization with overlap
     ethr =  6.76E-04,  avg # of iterations =  5.0

     total cpu time spent up to now is      122.2 secs

     total energy              =   -2877.73021988 Ry
     Harris-Foulkes estimate   =   -2878.10225498 Ry
     estimated scf accuracy    <       1.83006127 Ry

     iteration #  7     ecut=    60.00 Ry     beta=0.70
     Davidson diagonalization with overlap
     ethr =  6.76E-04,  avg # of iterations =  1.0

     total cpu time spent up to now is      135.1 secs

     total energy              =   -2877.06530828 Ry
     Harris-Foulkes estimate   =   -2877.74185131 Ry
     estimated scf accuracy    <       1.23105626 Ry

     iteration #  8     ecut=    60.00 Ry     beta=0.70
     Davidson diagonalization with overlap
     ethr =  5.13E-04,  avg # of iterations =  5.0

     total cpu time spent up to now is      154.7 secs

     total energy              =   -2878.02211381 Ry
     Harris-Foulkes estimate   =   -2878.33022510 Ry
     estimated scf accuracy    <       3.19536057 Ry

     iteration #  9     ecut=    60.00 Ry     beta=0.70
     Davidson diagonalization with overlap
     ethr =  5.13E-04,  avg # of iterations =  1.0

     total cpu time spent up to now is      167.6 secs

     total energy              =   -2877.03185546 Ry
     Harris-Foulkes estimate   =   -2878.02686750 Ry
     estimated scf accuracy    <       2.67984288 Ry

     iteration # 10     ecut=    60.00 Ry     beta=0.70
     Davidson diagonalization with overlap
     ethr =  5.13E-04,  avg # of iterations =  6.0

     total cpu time spent up to now is      186.7 secs

     total energy              =   -2877.79121519 Ry
     Harris-Foulkes estimate   =   -2877.87779597 Ry
     estimated scf accuracy    <       0.59308364 Ry

     iteration # 11     ecut=    60.00 Ry     beta=0.70
     Davidson diagonalization with overlap
     ethr =  2.47E-04,  avg # of iterations =  1.0

     total cpu time spent up to now is      199.6 secs

     total energy              =   -2877.68129853 Ry
     Harris-Foulkes estimate   =   -2877.79510251 Ry
     estimated scf accuracy    <       0.45410334 Ry

     iteration # 12     ecut=    60.00 Ry     beta=0.70
     Davidson diagonalization with overlap
     ethr =  1.89E-04,  avg # of iterations =  6.0

     total cpu time spent up to now is      215.1 secs

     total energy              =   -2877.77590033 Ry
     Harris-Foulkes estimate   =   -2877.76654638 Ry
     estimated scf accuracy    <       0.00673975 Ry

     iteration # 13     ecut=    60.00 Ry     beta=0.70
     Davidson diagonalization with overlap
     ethr =  2.81E-06,  avg # of iterations =  5.0

     total cpu time spent up to now is      238.2 secs

     total energy              =   -2877.80660448 Ry
     Harris-Foulkes estimate   =   -2877.83809399 Ry
     estimated scf accuracy    <       0.33504478 Ry

     iteration # 14     ecut=    60.00 Ry     beta=0.70
     Davidson diagonalization with overlap
     ethr =  2.81E-06,  avg # of iterations =  6.0

     total cpu time spent up to now is      256.0 secs

     total energy              =   -2877.76524707 Ry
     Harris-Foulkes estimate   =   -2877.80988729 Ry
     estimated scf accuracy    <       0.18271138 Ry

     iteration # 15     ecut=    60.00 Ry     beta=0.70
     Davidson diagonalization with overlap
     ethr =  2.81E-06,  avg # of iterations =  5.0

     total cpu time spent up to now is      276.9 secs

     total energy              =   -2877.77994281 Ry
     Harris-Foulkes estimate   =   -2877.78054521 Ry
     estimated scf accuracy    <       0.00980956 Ry

     iteration # 16     ecut=    60.00 Ry     beta=0.70
     Davidson diagonalization with overlap
     ethr =  2.81E-06,  avg # of iterations =  1.0

     total cpu time spent up to now is      289.9 secs

     total energy              =   -2877.77845898 Ry
     Harris-Foulkes estimate   =   -2877.77996579 Ry
     estimated scf accuracy    <       0.00871132 Ry

     iteration # 17     ecut=    60.00 Ry     beta=0.70
     Davidson diagonalization with overlap
     ethr =  2.81E-06,  avg # of iterations =  6.0

     total cpu time spent up to now is      304.5 secs

     total energy              =   -2877.77840358 Ry
     Harris-Foulkes estimate   =   -2877.77890757 Ry
     estimated scf accuracy    <       0.00257714 Ry

     iteration # 18     ecut=    60.00 Ry     beta=0.70
     Davidson diagonalization with overlap
     ethr =  1.07E-06,  avg # of iterations =  6.0

     total cpu time spent up to now is      320.3 secs

     total energy              =   -2877.77907586 Ry
     Harris-Foulkes estimate   =   -2877.77909581 Ry
     estimated scf accuracy    <       0.00017929 Ry

     iteration # 19     ecut=    60.00 Ry     beta=0.70
     Davidson diagonalization with overlap
     ethr =  7.47E-08,  avg # of iterations =  5.0

     total cpu time spent up to now is      341.7 secs

     total energy              =   -2877.77906221 Ry
     Harris-Foulkes estimate   =   -2877.77928350 Ry
     estimated scf accuracy    <       0.00088658 Ry

     iteration # 20     ecut=    60.00 Ry     beta=0.70
     Davidson diagonalization with overlap
     ethr =  7.47E-08,  avg # of iterations =  6.5

     total cpu time spent up to now is      358.3 secs

     total energy              =   -2877.77913921 Ry
     Harris-Foulkes estimate   =   -2877.77914844 Ry
     estimated scf accuracy    <       0.00008735 Ry

     iteration # 21     ecut=    60.00 Ry     beta=0.70
     Davidson diagonalization with overlap
     ethr =  3.64E-08,  avg # of iterations =  2.5

     total cpu time spent up to now is      374.0 secs

     total energy              =   -2877.77912688 Ry
     Harris-Foulkes estimate   =   -2877.77914475 Ry
     estimated scf accuracy    <       0.00005794 Ry

     iteration # 22     ecut=    60.00 Ry     beta=0.70
     Davidson diagonalization with overlap
     ethr =  2.41E-08,  avg # of iterations =  5.0

     total cpu time spent up to now is      395.8 secs

     total energy              =   -2877.77915496 Ry
     Harris-Foulkes estimate   =   -2877.77920539 Ry
     estimated scf accuracy    <       0.00038586 Ry

     iteration # 23     ecut=    60.00 Ry     beta=0.70
     Davidson diagonalization with overlap
     ethr =  2.41E-08,  avg # of iterations =  1.0

     total cpu time spent up to now is      409.1 secs

     total energy              =   -2877.77904357 Ry
     Harris-Foulkes estimate   =   -2877.77915589 Ry
     estimated scf accuracy    <       0.00029143 Ry

     iteration # 24     ecut=    60.00 Ry     beta=0.70
     Davidson diagonalization with overlap
     ethr =  2.41E-08,  avg # of iterations =  5.0

     total cpu time spent up to now is      430.8 secs

     total energy              =   -2877.77914444 Ry
     Harris-Foulkes estimate   =   -2877.77917138 Ry
     estimated scf accuracy    <       0.00018477 Ry

     iteration # 25     ecut=    60.00 Ry     beta=0.70
     Davidson diagonalization with overlap
     ethr =  2.41E-08,  avg # of iterations =  1.0

     total cpu time spent up to now is      444.2 secs

     total energy              =   -2877.77911066 Ry
     Harris-Foulkes estimate   =   -2877.77914508 Ry
     estimated scf accuracy    <       0.00013348 Ry

     iteration # 26     ecut=    60.00 Ry     beta=0.70
     Davidson diagonalization with overlap
     ethr =  2.41E-08,  avg # of iterations =  6.0

     total cpu time spent up to now is      463.4 secs

     total energy              =   -2877.77913485 Ry
     Harris-Foulkes estimate   =   -2877.77914457 Ry
     estimated scf accuracy    <       0.00001999 Ry

     iteration # 27     ecut=    60.00 Ry     beta=0.70
     Davidson diagonalization with overlap
     ethr =  8.33E-09,  avg # of iterations =  6.0

     total cpu time spent up to now is      483.0 secs

     total energy              =   -2877.77913424 Ry
     Harris-Foulkes estimate   =   -2877.77914867 Ry
     estimated scf accuracy    <       0.00004286 Ry

     iteration # 28     ecut=    60.00 Ry     beta=0.70
     Davidson diagonalization with overlap
     ethr =  8.33E-09,  avg # of iterations =  6.0

     total cpu time spent up to now is      499.9 secs

     total energy              =   -2877.77914206 Ry
     Harris-Foulkes estimate   =   -2877.77914227 Ry
     estimated scf accuracy    <       0.00000567 Ry

     iteration # 29     ecut=    60.00 Ry     beta=0.70
     Davidson diagonalization with overlap
     ethr =  2.36E-09,  avg # of iterations =  7.0

     total cpu time spent up to now is      516.2 secs

     total energy              =   -2877.77914063 Ry
     Harris-Foulkes estimate   =   -2877.77914384 Ry
     estimated scf accuracy    <       0.00001409 Ry

     iteration # 30     ecut=    60.00 Ry     beta=0.70
     Davidson diagonalization with overlap
     ethr =  2.36E-09,  avg # of iterations =  2.0

     total cpu time spent up to now is      529.3 secs

     total energy              =   -2877.77913937 Ry
     Harris-Foulkes estimate   =   -2877.77914078 Ry
     estimated scf accuracy    <       0.00000828 Ry

     iteration # 31     ecut=    60.00 Ry     beta=0.70
     Davidson diagonalization with overlap
     ethr =  2.36E-09,  avg # of iterations =  6.0

     total cpu time spent up to now is      545.8 secs

     total energy              =   -2877.77914137 Ry
     Harris-Foulkes estimate   =   -2877.77914139 Ry
     estimated scf accuracy    <       0.00000028 Ry

     iteration # 32     ecut=    60.00 Ry     beta=0.70
     Davidson diagonalization with overlap
     ethr =  1.17E-10,  avg # of iterations =  5.0

     total cpu time spent up to now is      564.8 secs

     total energy              =   -2877.77914156 Ry
     Harris-Foulkes estimate   =   -2877.77914148 Ry
     estimated scf accuracy    <       0.00000043 Ry

     iteration # 33     ecut=    60.00 Ry     beta=0.70
     Davidson diagonalization with overlap
     ethr =  1.17E-10,  avg # of iterations =  1.0

     total cpu time spent up to now is      577.7 secs

     total energy              =   -2877.77914151 Ry
     Harris-Foulkes estimate   =   -2877.77914157 Ry
     estimated scf accuracy    <       0.00000055 Ry

     iteration # 34     ecut=    60.00 Ry     beta=0.70
     Davidson diagonalization with overlap
     ethr =  1.17E-10,  avg # of iterations =  1.0

     total cpu time spent up to now is      590.6 secs

     total energy              =   -2877.77914143 Ry
     Harris-Foulkes estimate   =   -2877.77914151 Ry
     estimated scf accuracy    <       0.00000047 Ry

     iteration # 35     ecut=    60.00 Ry     beta=0.70
     Davidson diagonalization with overlap
     ethr =  1.17E-10,  avg # of iterations =  1.0

     total cpu time spent up to now is      603.5 secs

     total energy              =   -2877.77914140 Ry
     Harris-Foulkes estimate   =   -2877.77914144 Ry
     estimated scf accuracy    <       0.00000032 Ry

     iteration # 36     ecut=    60.00 Ry     beta=0.70
     Davidson diagonalization with overlap
     ethr =  1.17E-10,  avg # of iterations =  5.0

     total cpu time spent up to now is      618.0 secs

     total energy              =   -2877.77914142 Ry
     Harris-Foulkes estimate   =   -2877.77914142 Ry
     estimated scf accuracy    <       0.00000016 Ry

     iteration # 37     ecut=    60.00 Ry     beta=0.70
     Davidson diagonalization with overlap
     ethr =  6.60E-11,  avg # of iterations =  1.0

     total cpu time spent up to now is      634.3 secs

     total energy              =   -2877.77914141 Ry
     Harris-Foulkes estimate   =   -2877.77914142 Ry
     estimated scf accuracy    <       0.00000014 Ry

     iteration # 38     ecut=    60.00 Ry     beta=0.70
     Davidson diagonalization with overlap
     ethr =  5.83E-11,  avg # of iterations =  1.0

     total cpu time spent up to now is      651.5 secs

     total energy              =   -2877.77914140 Ry
     Harris-Foulkes estimate   =   -2877.77914141 Ry
     estimated scf accuracy    <       0.00000011 Ry

     iteration # 39     ecut=    60.00 Ry     beta=0.70
     Davidson diagonalization with overlap
     ethr =  4.64E-11,  avg # of iterations =  1.0

     total cpu time spent up to now is      665.0 secs

     total energy              =   -2877.77914137 Ry
     Harris-Foulkes estimate   =   -2877.77914141 Ry
     estimated scf accuracy    <       0.00000008 Ry

     iteration # 40     ecut=    60.00 Ry     beta=0.70
     Davidson diagonalization with overlap
     ethr =  3.44E-11,  avg # of iterations =  5.0

     total cpu time spent up to now is      682.8 secs

     total energy              =   -2877.77914141 Ry
     Harris-Foulkes estimate   =   -2877.77914143 Ry
     estimated scf accuracy    <       0.00000014 Ry

     iteration # 41     ecut=    60.00 Ry     beta=0.70
     Davidson diagonalization with overlap
     ethr =  3.44E-11,  avg # of iterations =  1.0

     total cpu time spent up to now is      695.8 secs

     total energy              =   -2877.77914141 Ry
     Harris-Foulkes estimate   =   -2877.77914141 Ry
     estimated scf accuracy    <       0.00000011 Ry

     iteration # 42     ecut=    60.00 Ry     beta=0.70
     Davidson diagonalization with overlap
     ethr =  3.44E-11,  avg # of iterations =  1.0

     total cpu time spent up to now is      709.6 secs

     total energy              =   -2877.77914141 Ry
     Harris-Foulkes estimate   =   -2877.77914141 Ry
     estimated scf accuracy    <       0.00000009 Ry

     iteration # 43     ecut=    60.00 Ry     beta=0.70
     Davidson diagonalization with overlap
     ethr =  3.44E-11,  avg # of iterations =  1.0

     total cpu time spent up to now is      722.5 secs

     total energy              =   -2877.77914140 Ry
     Harris-Foulkes estimate   =   -2877.77914141 Ry
     estimated scf accuracy    <       0.00000008 Ry

     iteration # 44     ecut=    60.00 Ry     beta=0.70
     Davidson diagonalization with overlap
     ethr =  3.44E-11,  avg # of iterations =  5.0

     total cpu time spent up to now is      737.4 secs

     total energy              =   -2877.77914140 Ry
     Harris-Foulkes estimate   =   -2877.77914141 Ry
     estimated scf accuracy    <       0.00000002 Ry

     iteration # 45     ecut=    60.00 Ry     beta=0.70
     Davidson diagonalization with overlap
     ethr =  8.04E-12,  avg # of iterations =  6.0

     total cpu time spent up to now is      753.6 secs

     End of self-consistent calculation

          k = 0.0110 0.0178 0.0198 ( 34780 PWs)   bands (ev):

   -23.5574 -23.5173 -23.4649 -23.4606 -23.2859 -23.2756 -23.2272 -23.2195
   -23.0554 -23.0471 -23.0191 -23.0010 -22.8619 -22.8607 -22.8208 -22.8203
   -15.3476 -15.2437 -14.2263 -14.1939 -14.1805 -14.1613 -11.3940 -11.3239
   -11.1611 -11.1426 -11.1302 -11.1219 -11.1076 -11.0715  -8.4544  -8.4066
    -8.2876  -8.2207  -8.0793  -8.0655  -8.0346  -8.0028  -6.9119  -6.7006
    -6.4385  -6.4219  -6.3908  -6.3602  -6.0334  -5.9966  -5.8747  -5.8527
    -5.7750  -5.7480  -5.6687  -5.4656  -5.3438  -5.2839  -5.1818  -5.1337
    -5.0580  -4.9790  -4.6704  -4.6344  -4.4450  -4.3828  -4.2995  -4.2252
    -4.2059  -4.1381  -3.7426  -3.6800  -3.6384  -3.5852  -3.2892  -3.2405
    -3.1448  -3.1127  -2.9438  -2.9115  -2.8267  -2.8082  -2.4465  -2.3442
    -2.2801  -2.2489  -2.2193  -2.2013  -2.1490  -2.1143  -2.0222  -1.9739
    -1.9469  -1.9187  -1.8356  -1.4870  -1.3855  -1.2685  -1.1894  -1.1558
    -1.1394  -1.0933  -1.0428  -0.9434  -0.7408  -0.5504  -0.4553   0.0225
     0.0471   0.2581   0.3407   0.5147   0.8807   1.1046   1.2112   1.2615
     1.4953   1.5133   1.5951   1.6528   1.6866   1.7703   1.8712   2.0469

          k = 0.0124 0.0178-0.0139 ( 34790 PWs)   bands (ev):

   -23.5575 -23.5173 -23.4648 -23.4607 -23.2859 -23.2755 -23.2272 -23.2195
   -23.0552 -23.0473 -23.0193 -23.0008 -22.8619 -22.8607 -22.8208 -22.8203
   -15.3476 -15.2437 -14.2256 -14.1946 -14.1811 -14.1607 -11.3929 -11.3245
   -11.1618 -11.1446 -11.1304 -11.1186 -11.1083 -11.0719  -8.4534  -8.4101
    -8.2750  -8.2291  -8.0776  -8.0683  -8.0323  -8.0042  -6.9119  -6.7048
    -6.4532  -6.4253  -6.3841  -6.3643  -6.0299  -5.9893  -5.8827  -5.8414
    -5.7685  -5.7470  -5.6612  -5.4584  -5.3383  -5.2819  -5.1759  -5.1522
    -5.0206  -4.9965  -4.7123  -4.6537  -4.4466  -4.3856  -4.3027  -4.2272
    -4.1734  -4.1262  -3.7402  -3.6803  -3.6321  -3.5875  -3.2928  -3.2394
    -3.1579  -3.1196  -2.9428  -2.9160  -2.8337  -2.8077  -2.4362  -2.3529
    -2.2748  -2.2405  -2.2163  -2.1911  -2.1587  -2.1152  -2.0223  -1.9700
    -1.9508  -1.9106  -1.8443  -1.4964  -1.3809  -1.2685  -1.1975  -1.1623
    -1.1246  -1.0941  -1.0371  -0.9280  -0.7424  -0.5539  -0.4519   0.0274
     0.0479   0.2536   0.3275   0.5144   0.8813   1.1063   1.2226   1.2559
     1.4872   1.5060   1.5992   1.6569   1.6910   1.7738   1.8682   2.0430
 TIME (initial):        0.0
* Atoms contributing density to the main cell
  Number of atoms:   15778
 
 TIME (set up the environment):        0.2
 DOCALC: T F T T
 ESAVE:       0.000000000000       0.000000000000       0.000000000000
* XDM: using PAW all-electron density reconstruction? T
 TIME (promolecular grid):       14.8
 TIME (calculation of b grid):       16.8
 TIME (calculation of volumes and moments):      102.9
 
+ Volume and moments
# All results in atomic units.
# i              V                  Vfree                 M1                  M2                  M3
  1       138.8529996273       174.2312296757         8.8045700041       223.7455831193      6199.7242017556
  2       138.8529996273       174.2312296757         8.8045700041       223.7455831193      6199.7242017557
  3       137.4519016645       174.2312296757         9.1174868207       228.4982732723      6295.5326850451
  4       137.4519016645       174.2312296757         9.1174868207       228.4982732723      6295.5326850451
  5        34.2639980251        39.0349749523         3.8777375813        51.1080913274       977.9169669930
  6        34.2639980251        39.0349749523         3.8777375813        51.1080913274       977.9169669930
  7        33.9920776828        39.0349749523         3.8347793077        53.6331479610      1078.2913902877
  8        33.9920776828        39.0349749523         3.8347793077        53.6331479610      1078.2913902878
  9        34.0831385745        39.0349749523         3.8315653692        53.1855592256      1048.7666797739
 10        34.0831385745        39.0349749523         3.8315653692        53.1855592256      1048.7666797739
 11        34.2966154311        39.0349749523         3.8711144476        51.5660159542       989.8970096473
 12        34.2966154311        39.0349749523         3.8711144476        51.5660159542       989.8970096473
 13        33.9638149581        39.0349749523         3.8342975200        53.0677695310      1045.3960002636
 14        33.9638149581        39.0349749523         3.8342975200        53.0677695310      1045.3960002636
 15        33.7108113343        39.0349749523         3.8405513819        53.6429257914      1076.5205083482
 16        33.7108113343        39.0349749523         3.8405513819        53.6429257914      1076.5205083482
 17        33.8484608097        39.0349749523         3.8246312383        53.3818016375      1072.0915952336
 18        33.8484608097        39.0349749523         3.8246312383        53.3818016375      1072.0915952336
 19        34.0984437242        39.0349749523         3.8243577406        53.0644827078      1045.5858746319
 20        34.0984437242        39.0349749523         3.8243577406        53.0644827078      1045.5858746319
 21        34.2903466452        39.0349749523         3.8706393579        51.5127718554       988.0258875382
 22        34.2903466452        39.0349749523         3.8706393579        51.5127718554       988.0258875382
 23        34.2903999594        39.0349749523         3.8796391562        51.1604481763       979.8765818487
 24        34.2903999594        39.0349749523         3.8796391562        51.1604481763       979.8765818487
 25        34.0204494168        39.0349749523         3.8364379841        53.1391795116      1048.7891815796
 26        34.0204494168        39.0349749523         3.8364379841        53.1391795116      1048.7891815796
 27        34.0094570931        39.0349749523         3.8336939591        53.9315690934      1088.5123710264
 28        34.0094570931        39.0349749523         3.8336939591        53.9315690934      1088.5123710264
 29        17.8143309532        19.2806797260         4.5880354713        28.1995328072       238.7094387804
 30        17.8143309532        19.2806797260         4.5880354713        28.1995328072       238.7094387804
 31        17.7030361522        19.2806797260         4.5950043078        28.2832497743       240.6989005536
 32        17.7030361522        19.2806797260         4.5950043078        28.2832497743       240.6989005536
 33        17.7910430658        19.2806797260         4.5995264334        28.3774060452       242.3573284475
 34        17.7910430658        19.2806797260         4.5995264334        28.3774060452       242.3573284475
 35        17.7869578327        19.2806797260         4.5859770412        28.0696793175       237.2618661548
 36        17.7869578327        19.2806797260         4.5859770412        28.0696793175       237.2618661548
 37        17.8093586194        19.2806797260         4.5959407164        28.2331558958       238.2773593048
 38        17.8093586194        19.2806797260         4.5959407164        28.2331558958       238.2773593048
 39        17.8438623093        19.2806797260         4.6339258726        28.7720395349       246.8674083108
 40        17.8438623093        19.2806797260         4.6339258726        28.7720395349       246.8674083108
 41        17.7653213892        19.2806797260         4.5953176888        28.3280157714       241.5545723207
 42        17.7653213892        19.2806797260         4.5953176888        28.3280157714       241.5545723207
 43        17.7898044275        19.2806797260         4.5957349214        28.1418647542       237.8148679057
 44        17.7898044275        19.2806797260         4.5957349214        28.1418647542       237.8148679057
 45        21.9620996705        23.7788846669         4.3582469324        32.3467562686       328.3311331391
 46        21.9620996705        23.7788846669         4.3582469324        32.3467562686       328.3311331391
 
+ Dispersion coefficients
# All results in atomic units.
# i   j              C6                  C8                  C10                   Rc                  Rvdw
  1   1       156.2600510893     11912.8462490218    863949.3241932052         8.6234818698         8.0660601438
  2   1       156.2600510893     11912.8462490219    863949.3241932082         8.6234818698         8.0660601438
  2   2       156.2600510893     11912.8462490220    863949.3241932113         8.6234818698         8.0660601438
  3   1       158.1681235583     11975.0617436478    864254.5207665663         8.5980787386         8.0557845773
  3   2       158.1681235583     11975.0617436479    864254.5207665692         8.5980787386         8.0557845773
  3   3       160.1807939258     12043.1327874849    864960.1491266685         8.5726552366         8.0455007707
  4   1       158.1681235583     11975.0617436478    864254.5207665600         8.5980787386         8.0557845773
  4   2       158.1681235583     11975.0617436478    864254.5207665628         8.5980787386         8.0557845773
  4   3       160.1807939258     12043.1327874849    864960.1491266623         8.5726552366         8.0455007707
  4   4       160.1807939258     12043.1327874848    864960.1491266561         8.5726552366         8.0455007707
  5   1        55.0674497345      3187.7702135672    182790.3020786383         7.5904122382         7.6481834778
  5   2        55.0674497345      3187.7702135672    182790.3020786389         7.5904122382         7.6481834778
  5   3        55.9919554541      3211.8174096767    183241.9734462625         7.5635397993         7.6373135763
  5   4        55.9919554541      3211.8174096766    183241.9734462611         7.5635397993         7.6373135763
  5   5        20.2135142957       799.2346926561     35137.7201374472         6.4585456390         7.1903434385
  6   1        55.0674497345      3187.7702135672    182790.3020786381         7.5904122382         7.6481834778
  6   2        55.0674497345      3187.7702135672    182790.3020786387         7.5904122382         7.6481834778
  6   3        55.9919554541      3211.8174096766    183241.9734462624         7.5635397993         7.6373135763
  6   4        55.9919554541      3211.8174096766    183241.9734462609         7.5635397993         7.6373135763
  6   5        20.2135142957       799.2346926561     35137.7201374472         6.4585456390         7.1903434385
  6   6        20.2135142957       799.2346926561     35137.7201374472         6.4585456390         7.1903434385
  7   1        54.5610749023      3224.4300222799    188968.2734112850         7.6714441540         7.6809608878
  7   2        54.5610749023      3224.4300222799    188968.2734112857         7.6714441540         7.6809608878
  7   3        55.4751669012      3249.2516760646    189475.2910575740         7.6447566846         7.6701658064
  7   4        55.4751669012      3249.2516760646    189475.2910575725         7.6447566846         7.6701658064
  7   5        20.0212918584       815.8432362933     36858.2011251943         6.5517427708         7.2280416783
  7   6        20.0212918584       815.8432362933     36858.2011251943         6.5517427708         7.2280416783
  7   7        19.8309472718       832.0657153021     38597.0018119835         6.6434494785         7.2651370415
  8   1        54.5610749023      3224.4300222799    188968.2734112853         7.6714441540         7.6809608878
  8   2        54.5610749023      3224.4300222799    188968.2734112859         7.6714441540         7.6809608878
  8   3        55.4751669012      3249.2516760646    189475.2910575742         7.6447566846         7.6701658064
  8   4        55.4751669012      3249.2516760646    189475.2910575728         7.6447566846         7.6701658064
  8   5        20.0212918584       815.8432362933     36858.2011251943         6.5517427708         7.2280416783
  8   6        20.0212918584       815.8432362933     36858.2011251944         6.5517427708         7.2280416783
  8   7        19.8309472718       832.0657153021     38597.0018119836         6.6434494785         7.2651370415
  8   8        19.8309472718       832.0657153021     38597.0018119836         6.6434494785         7.2651370415
  9   1        54.6301580447      3219.9014865499    187778.6587051547         7.6569262105         7.6750883796
  9   2        54.6301580447      3219.9014865499    187778.6587051554         7.6569262105         7.6750883796
  9   3        55.5432852633      3244.4863369632    188263.7887367104         7.6301699154         7.6642654582
  9   4        55.5432852633      3244.4863369632    188263.7887367089         7.6301699154         7.6642654582
  9   5        20.0396015878       813.4305540663     36475.9546119257         6.5330975504         7.2204996866
  9   6        20.0396015878       813.4305540663     36475.9546119257         6.5330975504         7.2204996866
  9   7        19.8491382415       829.7002117139     38213.3445612351         6.6252676159         7.2577824781
  9   8        19.8491382415       829.7002117139     38213.3445612352         6.6252676159         7.2577824781
  9   9        19.8674072210       827.3322218849     37829.9891819318         6.6069784957         7.2503845290
 10   1        54.6301580447      3219.9014865499    187778.6587051542         7.6569262105         7.6750883796
 10   2        54.6301580447      3219.9014865499    187778.6587051549         7.6569262105         7.6750883796
 10   3        55.5432852633      3244.4863369632    188263.7887367099         7.6301699154         7.6642654582
 10   4        55.5432852633      3244.4863369632    188263.7887367084         7.6301699154         7.6642654582
 10   5        20.0396015878       813.4305540663     36475.9546119256         6.5330975504         7.2204996866
 10   6        20.0396015878       813.4305540663     36475.9546119256         6.5330975504         7.2204996866
 10   7        19.8491382415       829.7002117139     38213.3445612350         6.6252676159         7.2577824781
 10   8        19.8491382415       829.7002117139     38213.3445612351         6.6252676159         7.2577824781
 10   9        19.8674072210       827.3322218849     37829.9891819316         6.6069784957         7.2503845290
 10  10        19.8674072210       827.3322218849     37829.9891819315         6.6069784957         7.2503845290
 11   1        55.0611752887      3199.0394100164    183985.4903226381         7.6030081725         7.6532785333
 11   2        55.0611752887      3199.0394100164    183985.4903226388         7.6030081725         7.6532785333
 11   3        55.9839569173      3223.1859611609    184440.5715907866         7.5761498170         7.6424143285
 11   4        55.9839569173      3223.1859611609    184440.5715907852         7.5761498170         7.6424143285
 11   5        20.2058373631       803.1999047998     35424.4072872086         6.4722329640         7.1958799614
 11   6        20.2058373631       803.1999047998     35424.4072872086         6.4722329640         7.1958799614
 11   7        20.0137301659       819.7632764571     37151.0034414179         6.5652786372         7.2335169362
 11   8        20.0137301659       819.7632764571     37151.0034414179         6.5652786372         7.2335169362
 11   9        20.0320798043       817.3572827171     36768.0225203754         6.5466960954         7.2260002981
 11  10        20.0320798043       817.3572827171     36768.0225203752         6.5466960954         7.2260002981
 11  11        20.1981991001       807.1634185476     35712.6176026404         6.4859115090         7.2014129329
 12   1        55.0611752887      3199.0394100164    183985.4903226376         7.6030081725         7.6532785333
 12   2        55.0611752887      3199.0394100164    183985.4903226383         7.6030081725         7.6532785333
 12   3        55.9839569173      3223.1859611609    184440.5715907862         7.5761498170         7.6424143285
 12   4        55.9839569173      3223.1859611609    184440.5715907846         7.5761498170         7.6424143285
 12   5        20.2058373631       803.1999047998     35424.4072872085         6.4722329640         7.1958799614
 12   6        20.2058373631       803.1999047998     35424.4072872085         6.4722329640         7.1958799614
 12   7        20.0137301659       819.7632764571     37151.0034414178         6.5652786372         7.2335169362
 12   8        20.0137301659       819.7632764571     37151.0034414178         6.5652786372         7.2335169362
 12   9        20.0320798043       817.3572827171     36768.0225203752         6.5466960954         7.2260002981
 12  10        20.0320798043       817.3572827171     36768.0225203751         6.5466960954         7.2260002981
 12  11        20.1981991001       807.1634185476     35712.6176026404         6.4859115090         7.2014129329
 12  12        20.1981991001       807.1634185476     35712.6176026403         6.4859115090         7.2014129329
 13   1        54.5311399432      3210.7435191048    187084.7950839687         7.6533127789         7.6736267465
 13   2        54.5311399432      3210.7435191048    187084.7950839695         7.6533127789         7.6736267465
 13   3        55.4451559813      3235.3767277210    187575.0613833583         7.6265522672         7.6628021196
 13   4        55.4451559813      3235.3767277210    187575.0613833569         7.6265522672         7.6628021196
 13   5        20.0117195148       811.0797466856     36337.2265509925         6.5291650570         7.2189089930
 13   6        20.0117195148       811.0797466856     36337.2265509925         6.5291650570         7.2189089930
 13   7        19.8214548328       827.3355849152     38070.1825955070         6.6213785696         7.2562093589
 13   8        19.8214548328       827.3355849152     38070.1825955071         6.6213785696         7.2562093589
 13   9        19.8396247884       824.9667282693     37687.4950649654         6.6030719742         7.2488043411
 13  10        19.8396247884       824.9667282693     37687.4950649653         6.6030719742         7.2488043411
 13  11        20.0041520405       814.9991815621     36628.3377299627         6.5427663363         7.2244107105
 13  12        20.0041520405       814.9991815621     36628.3377299626         6.5427663363         7.2244107105
 13  13        19.8119694074       822.6098947553     37545.6298798027         6.5991646131         7.2472238135
 14   1        54.5311399432      3210.7435191048    187084.7950839679         7.6533127789         7.6736267465
 14   2        54.5311399432      3210.7435191048    187084.7950839686         7.6533127789         7.6736267465
 14   3        55.4451559813      3235.3767277210    187575.0613833576         7.6265522672         7.6628021196
 14   4        55.4451559813      3235.3767277210    187575.0613833560         7.6265522672         7.6628021196
 14   5        20.0117195148       811.0797466856     36337.2265509923         6.5291650570         7.2189089930
 14   6        20.0117195148       811.0797466856     36337.2265509923         6.5291650570         7.2189089930
 14   7        19.8214548328       827.3355849152     38070.1825955069         6.6213785696         7.2562093589
 14   8        19.8214548328       827.3355849152     38070.1825955069         6.6213785696         7.2562093589
 14   9        19.8396247884       824.9667282693     37687.4950649653         6.6030719742         7.2488043411
 14  10        19.8396247884       824.9667282693     37687.4950649652         6.6030719742         7.2488043411
 14  11        20.0041520405       814.9991815621     36628.3377299626         6.5427663363         7.2244107105
 14  12        20.0041520405       814.9991815621     36628.3377299625         6.5427663363         7.2244107105
 14  13        19.8119694074       822.6098947553     37545.6298798025         6.5991646131         7.2472238135
 14  14        19.8119694074       822.6098947553     37545.6298798024         6.5991646131         7.2472238135
 15   1        54.3222392596      3208.8100804021    187937.9630549073         7.6693731397         7.6801231625
 15   2        54.3222392596      3208.8100804021    187937.9630549080         7.6693731397         7.6801231625
 15   3        55.2382161658      3233.8424626855    188460.9446936860         7.6426789629         7.6693253680
 15   4        55.2382161658      3233.8424626855    188460.9446936845         7.6426789629         7.6693253680
 15   5        19.9532019627       812.5157333394     36677.1806484845         6.5492545970         7.2270352120
 15   6        19.9532019627       812.5157333394     36677.1806484845         6.5492545970         7.2270352120
 15   7        19.7633509076       828.6818492916     38409.0621057209         6.6410098655         7.2641502181
 15   8        19.7633509076       828.6818492916     38409.0621057209         6.6410098655         7.2641502181
 15   9        19.7813093561       826.3167836043     38026.4943876677         6.6228150031         7.2567903962
 15  10        19.7813093561       826.3167836043     38026.4943876676         6.6228150031         7.2567903962
 15  11        19.9455357839       816.4173212691     36968.5489117796         6.5627962866         7.2325128254
 15  12        19.9455357839       816.4173212691     36968.5489117795         6.5627962866         7.2325128254
 15  13        19.7539250454       823.9695317168     37884.3545459652         6.6189243144         7.2552166126
 15  14        19.7539250454       823.9695317168     37884.3545459651         6.6189243144         7.2552166126
 15  15        19.6964591094       825.3312526962     38222.9035607090         6.6385687895         7.2631628028
 16   1        54.3222392596      3208.8100804021    187937.9630549050         7.6693731397         7.6801231625
 16   2        54.3222392596      3208.8100804021    187937.9630549057         7.6693731397         7.6801231625
 16   3        55.2382161658      3233.8424626855    188460.9446936838         7.6426789629         7.6693253680
 16   4        55.2382161658      3233.8424626855    188460.9446936823         7.6426789629         7.6693253680
 16   5        19.9532019627       812.5157333394     36677.1806484840         6.5492545970         7.2270352120
 16   6        19.9532019627       812.5157333394     36677.1806484840         6.5492545970         7.2270352120
 16   7        19.7633509076       828.6818492916     38409.0621057203         6.6410098655         7.2641502181
 16   8        19.7633509076       828.6818492916     38409.0621057204         6.6410098655         7.2641502181
 16   9        19.7813093561       826.3167836043     38026.4943876672         6.6228150031         7.2567903962
 16  10        19.7813093561       826.3167836043     38026.4943876671         6.6228150031         7.2567903962
 16  11        19.9455357839       816.4173212691     36968.5489117791         6.5627962866         7.2325128254
 16  12        19.9455357839       816.4173212691     36968.5489117790         6.5627962866         7.2325128254
 16  13        19.7539250454       823.9695317168     37884.3545459647         6.6189243144         7.2552166126
 16  14        19.7539250454       823.9695317168     37884.3545459646         6.6189243144         7.2552166126
 16  15        19.6964591094       825.3312526962     38222.9035607085         6.6385687895         7.2631628028
 16  16        19.6964591094       825.3312526962     38222.9035607079         6.6385687895         7.2631628028
 17   1        54.3650474491      3210.5123399206    188028.2165788884         7.6687828001         7.6798843701
 17   2        54.3650474491      3210.5123399206    188028.2165788891         7.6687828001         7.6798843701
 17   3        55.2768069707      3235.2614297341    188534.6141976130         7.6420910459         7.6690875556
 17   4        55.2768069707      3235.2614297340    188534.6141976115         7.6420910459         7.6690875556
 17   5        19.9525179124       812.1845748915     36665.0804260448         6.5487831968         7.2268445306
 17   6        19.9525179124       812.1845748915     36665.0804260448         6.5487831968         7.2268445306
 17   7        19.7628023384       828.3584283859     38396.5781826147         6.6405281433         7.2639553615
 17   8        19.7628023384       828.3584283859     38396.5781826148         6.6405281433         7.2639553615
 17   9        19.7809032724       825.9991260002     38014.3739656180         6.6223326978         7.2565953037
 17  10        19.7809032724       825.9991260002     38014.3739656179         6.6223326978         7.2565953037
 17  11        19.9449611763       816.0906129223     36956.5256042561         6.5623222308         7.2323210699
 17  12        19.9449611763       816.0906129223     36956.5256042560         6.5623222308         7.2323210699
 17  13        19.7533480425       823.6451883917     37871.9581134002         6.6184427184         7.2550218071
 17  14        19.7533480425       823.6451883917     37871.9581134001         6.6184427184         7.2550218071
 17  15        19.6955147961       824.9922871662     38209.7075830883         6.6380871872         7.2629679947
 17  16        19.6955147961       824.9922871662     38209.7075830878         6.6380871872         7.2629679947
 17  17        19.6949039269       824.6673123617     38197.1678867897         6.6376059039         7.2627733156
 18   1        54.3650474491      3210.5123399206    188028.2165788894         7.6687828001         7.6798843701
 18   2        54.3650474491      3210.5123399206    188028.2165788901         7.6687828001         7.6798843701
 18   3        55.2768069707      3235.2614297341    188534.6141976140         7.6420910459         7.6690875556
 18   4        55.2768069707      3235.2614297341    188534.6141976125         7.6420910459         7.6690875556
 18   5        19.9525179124       812.1845748915     36665.0804260450         6.5487831968         7.2268445306
 18   6        19.9525179124       812.1845748915     36665.0804260450         6.5487831968         7.2268445306
 18   7        19.7628023384       828.3584283859     38396.5781826149         6.6405281433         7.2639553615
 18   8        19.7628023384       828.3584283859     38396.5781826149         6.6405281433         7.2639553615
 18   9        19.7809032724       825.9991260002     38014.3739656182         6.6223326978         7.2565953037
 18  10        19.7809032724       825.9991260002     38014.3739656180         6.6223326978         7.2565953037
 18  11        19.9449611763       816.0906129223     36956.5256042562         6.5623222308         7.2323210699
 18  12        19.9449611763       816.0906129223     36956.5256042561         6.5623222308         7.2323210699
 18  13        19.7533480425       823.6451883917     37871.9581134004         6.6184427184         7.2550218071
 18  14        19.7533480425       823.6451883917     37871.9581134002         6.6184427184         7.2550218071
 18  15        19.6955147961       824.9922871663     38209.7075830885         6.6380871872         7.2629679947
 18  16        19.6955147961       824.9922871662     38209.7075830880         6.6380871872         7.2629679947
 18  17        19.6949039269       824.6673123617     38197.1678867899         6.6376059039         7.2627733156
 18  18        19.6949039269       824.6673123617     38197.1678867900         6.6376059039         7.2627733156
 19   1        54.6034848916      3217.8790162098    187620.4371378366         7.6562477412         7.6748139388
 19   2        54.6034848916      3217.8790162098    187620.4371378373         7.6562477412         7.6748139388
 19   3        55.5147579041      3242.3620789845    188099.8960349002         7.6294887509         7.6639899272
 19   4        55.5147579041      3242.3620789845    188099.8960348988         7.6294887509         7.6639899272
 19   5        20.0251473068       812.6786761428     36430.8997714938         6.5322545058         7.2201586751
 19   6        20.0251473068       812.6786761428     36430.8997714939         6.5322545058         7.2201586751
 19   7        19.8348580198       828.9397014390     38166.9160660228         6.6244433841         7.2574490764
 19   8        19.8348580198       828.9397014390     38166.9160660228         6.6244433841         7.2574490764
 19   9        19.8531545226       826.5749577981     37783.9446332007         6.6061496059         7.2500492431
 19  10        19.8531545226       826.5749577981     37783.9446332006         6.6061496059         7.2500492431
 19  11        20.0176620002       816.6039012134     36722.7559074179         6.5458554673         7.2256602640
 19  12        20.0176620002       816.6039012133     36722.7559074178         6.5458554673         7.2256602640
 19  13        19.8253432498       824.2093625586     37641.5051715964         6.6022424077         7.2484687814
 19  14        19.8253432498       824.2093625586     37641.5051715962         6.6022424077         7.2484687814
 19  15        19.7669648573       825.5545439948     37980.0562000401         6.6219902262         7.2564567740
 19  16        19.7669648573       825.5545439948     37980.0562000396         6.6219902262         7.2564567740
 19  17        19.7666538874       825.2410787130     37968.1317109794         6.6215079286         7.2562616846
 19  18        19.7666538874       825.2410787130     37968.1317109796         6.6215079286         7.2562616846
 19  19        19.8389390174       825.8194770292     37738.0004982625         6.6053205172         7.2497138767
 20   1        54.6034848916      3217.8790162098    187620.4371378373         7.6562477412         7.6748139388
 20   2        54.6034848916      3217.8790162098    187620.4371378380         7.6562477412         7.6748139388
 20   3        55.5147579041      3242.3620789845    188099.8960349009         7.6294887509         7.6639899272
 20   4        55.5147579041      3242.3620789845    188099.8960348995         7.6294887509         7.6639899272
 20   5        20.0251473068       812.6786761428     36430.8997714940         6.5322545058         7.2201586751
 20   6        20.0251473068       812.6786761428     36430.8997714940         6.5322545058         7.2201586751
 20   7        19.8348580198       828.9397014390     38166.9160660229         6.6244433841         7.2574490764
 20   8        19.8348580198       828.9397014390     38166.9160660230         6.6244433841         7.2574490764
 20   9        19.8531545226       826.5749577981     37783.9446332008         6.6061496059         7.2500492431
 20  10        19.8531545226       826.5749577981     37783.9446332007         6.6061496059         7.2500492431
 20  11        20.0176620002       816.6039012134     36722.7559074180         6.5458554673         7.2256602640
 20  12        20.0176620002       816.6039012134     36722.7559074179         6.5458554673         7.2256602640
 20  13        19.8253432498       824.2093625586     37641.5051715965         6.6022424077         7.2484687814
 20  14        19.8253432498       824.2093625586     37641.5051715964         6.6022424077         7.2484687814
 20  15        19.7669648573       825.5545439948     37980.0562000402         6.6219902262         7.2564567740
 20  16        19.7669648573       825.5545439948     37980.0562000397         6.6219902262         7.2564567740
 20  17        19.7666538874       825.2410787130     37968.1317109796         6.6215079286         7.2562616846
 20  18        19.7666538874       825.2410787130     37968.1317109797         6.6215079286         7.2562616846
 20  19        19.8389390174       825.8194770292     37738.0004982627         6.6053205172         7.2497138767
 20  20        19.8389390174       825.8194770292     37738.0004982628         6.6053205172         7.2497138767
 21   1        55.0524361258      3197.5307408833    183835.2974912536         7.6017578104         7.6527727618
 21   2        55.0524361258      3197.5307408833    183835.2974912542         7.6017578104         7.6527727618
 21   3        55.9751078346      3221.6587879893    184289.3990222263         7.5748963412         7.6419072975
 21   4        55.9751078346      3221.6587879893    184289.3990222248         7.5748963412         7.6419072975
 21   5        20.2027516262       802.7099312734     35387.1778689247         6.4707793031         7.1952919556
 21   6        20.2027516262       802.7099312734     35387.1778689247         6.4707793031         7.1952919556
 21   7        20.0106728134       819.2742266567     37112.9899239912         6.5638497293         7.2329389430
 21   8        20.0106728134       819.2742266567     37112.9899239912         6.5638497293         7.2329389430
 21   9        20.0290185919       816.8682237934     36730.1430684123         6.5452597226         7.2254192853
 21  10        20.0290185919       816.8682237934     36730.1430684122         6.5452597226         7.2254192853
 21  11        20.1951137227       806.6729463534     35675.2099752092         6.4844604614         7.2008259841
 21  12        20.1951137227       806.6729463534     35675.2099752091         6.4844604614         7.2008259841
 21  13        20.0010963633       814.5110422911     36590.5682694021         6.5413292175         7.2238293960
 21  14        20.0010963633       814.5110422911     36590.5682694019         6.5413292175         7.2238293960
 21  15        19.9424917875       815.9301425078     36930.6976522396         6.5613665856         7.2319345114
 21  16        19.9424917875       815.9301425078     36930.6976522391         6.5613665856         7.2319345114
 21  17        19.9419148035       815.6033936892     36918.6828339813         6.5608926778         7.2317428157
 21  18        19.9419148035       815.6033936893     36918.6828339815         6.5608926778         7.2317428157
 21  19        20.0146022902       816.1151909367     36684.9109099813         6.5444187895         7.2250791278
 21  20        20.0146022902       816.1151909367     36684.9109099814         6.5444187895         7.2250791278
 21  21        20.1920288348       806.1826058960     35637.8254344240         6.4830090040         7.2002388696
 22   1        55.0524361258      3197.5307408833    183835.2974912542         7.6017578104         7.6527727618
 22   2        55.0524361258      3197.5307408833    183835.2974912549         7.6017578104         7.6527727618
 22   3        55.9751078346      3221.6587879893    184289.3990222269         7.5748963412         7.6419072975
 22   4        55.9751078346      3221.6587879893    184289.3990222255         7.5748963412         7.6419072975
 22   5        20.2027516262       802.7099312734     35387.1778689248         6.4707793031         7.1952919556
 22   6        20.2027516262       802.7099312734     35387.1778689248         6.4707793031         7.1952919556
 22   7        20.0106728134       819.2742266567     37112.9899239913         6.5638497293         7.2329389430
 22   8        20.0106728134       819.2742266567     37112.9899239914         6.5638497293         7.2329389430
 22   9        20.0290185919       816.8682237934     36730.1430684125         6.5452597226         7.2254192853
 22  10        20.0290185919       816.8682237934     36730.1430684123         6.5452597226         7.2254192853
 22  11        20.1951137227       806.6729463534     35675.2099752093         6.4844604614         7.2008259841
 22  12        20.1951137227       806.6729463534     35675.2099752092         6.4844604614         7.2008259841
 22  13        20.0010963633       814.5110422911     36590.5682694022         6.5413292175         7.2238293960
 22  14        20.0010963633       814.5110422911     36590.5682694021         6.5413292175         7.2238293960
 22  15        19.9424917875       815.9301425078     36930.6976522397         6.5613665856         7.2319345114
 22  16        19.9424917875       815.9301425078     36930.6976522393         6.5613665856         7.2319345114
 22  17        19.9419148035       815.6033936893     36918.6828339815         6.5608926778         7.2317428157
 22  18        19.9419148035       815.6033936893     36918.6828339816         6.5608926778         7.2317428157
 22  19        20.0146022902       816.1151909367     36684.9109099814         6.5444187895         7.2250791278
 22  20        20.0146022902       816.1151909367     36684.9109099815         6.5444187895         7.2250791278
 22  21        20.1920288348       806.1826058960     35637.8254344242         6.4830090040         7.2002388696
 22  22        20.1920288348       806.1826058961     35637.8254344243         6.4830090040         7.2002388696
 23   1        55.1037082628      3190.4506688719    182994.0786497759         7.5912772602         7.6485333792
 23   2        55.1037082628      3190.4506688720    182994.0786497765         7.5912772602         7.6485333792
 23   3        56.0286522912      3214.5136837055    183446.3090168753         7.5644082006         7.6376648446
 23   4        56.0286522912      3214.5136837055    183446.3090168738         7.5644082006         7.6376648446
 23   5        20.2262577825       799.9520112560     35183.1818498736         6.4596194865         7.1907778098
 23   6        20.2262577825       799.9520112560     35183.1818498736         6.4596194865         7.1907778098
 23   7        20.0339186082       816.5691771813     36905.0112236857         6.5527924624         7.2284662785
 23   8        20.0339186082       816.5691771813     36905.0112236857         6.5527924624         7.2284662785
 23   9        20.0522448168       814.1553669408     36522.4919101904         6.5341533432         7.2209267548
 23  10        20.0522448168       814.1553669408     36522.4919101903         6.5341533432         7.2209267548
 23  11        20.2185797759       803.9197919133     35470.1316358716         6.4733037592         7.1963130981
 23  12        20.2185797759       803.9197919133     35470.1316358715         6.4733037592         7.1963130981
 23  13        20.0243392379       811.8025421966     36383.6088180516         6.5302217050         7.2193364072
 23  14        20.0243392379       811.8025421966     36383.6088180514         6.5302217050         7.2193364072
 23  15        19.9657720567       813.2382980960     36723.7603191240         6.5503049949         7.2274600979
 23  16        19.9657720567       813.2382980960     36723.7603191235         6.5503049949         7.2274600979
 23  17        19.9650990751       812.9073920249     36711.6668359760         6.5498335722         7.2272694074
 23  18        19.9650990751       812.9073920249     36711.6668359761         6.5498335722         7.2272694074
 23  19        20.0377846869       813.4029947794     36477.3943746839         6.5333105579         7.2205858482
 23  20        20.0377846869       813.4029947794     36477.3943746840         6.5333105579         7.2205858482
 23  21        20.2154920080       803.4294734329     35432.8677792586         6.4718504910         7.1957252511
 23  22        20.2154920080       803.4294734329     35432.8677792587         6.4718504910         7.1957252511
 23  23        20.2390096999       800.6699323422     35228.6918162823         6.4606929960         7.1912120444
 24   1        55.1037082628      3190.4506688720    182994.0786497758         7.5912772602         7.6485333792
 24   2        55.1037082628      3190.4506688720    182994.0786497766         7.5912772602         7.6485333792
 24   3        56.0286522912      3214.5136837055    183446.3090168753         7.5644082006         7.6376648446
 24   4        56.0286522912      3214.5136837055    183446.3090168738         7.5644082006         7.6376648446
 24   5        20.2262577825       799.9520112560     35183.1818498736         6.4596194865         7.1907778098
 24   6        20.2262577825       799.9520112560     35183.1818498736         6.4596194865         7.1907778098
 24   7        20.0339186082       816.5691771813     36905.0112236857         6.5527924624         7.2284662785
 24   8        20.0339186082       816.5691771813     36905.0112236857         6.5527924624         7.2284662785
 24   9        20.0522448168       814.1553669408     36522.4919101904         6.5341533432         7.2209267548
 24  10        20.0522448168       814.1553669408     36522.4919101903         6.5341533432         7.2209267548
 24  11        20.2185797759       803.9197919133     35470.1316358716         6.4733037592         7.1963130981
 24  12        20.2185797759       803.9197919133     35470.1316358715         6.4733037592         7.1963130981
 24  13        20.0243392379       811.8025421966     36383.6088180516         6.5302217050         7.2193364072
 24  14        20.0243392379       811.8025421966     36383.6088180514         6.5302217050         7.2193364072
 24  15        19.9657720567       813.2382980960     36723.7603191240         6.5503049949         7.2274600979
 24  16        19.9657720567       813.2382980960     36723.7603191235         6.5503049949         7.2274600979
 24  17        19.9650990751       812.9073920249     36711.6668359760         6.5498335722         7.2272694074
 24  18        19.9650990751       812.9073920249     36711.6668359762         6.5498335722         7.2272694074
 24  19        20.0377846869       813.4029947794     36477.3943746839         6.5333105579         7.2205858482
 24  20        20.0377846869       813.4029947794     36477.3943746840         6.5333105579         7.2205858482
 24  21        20.2154920080       803.4294734329     35432.8677792586         6.4718504910         7.1957252511
 24  22        20.2154920080       803.4294734329     35432.8677792587         6.4718504910         7.1957252511
 24  23        20.2390096999       800.6699323422     35228.6918162823         6.4606929960         7.1912120444
 24  24        20.2390096999       800.6699323422     35228.6918162823         6.4606929960         7.1912120444
 25   1        54.5978180292      3215.5614586061    187456.9921481867         7.6547768300         7.6742189552
 25   2        54.5978180292      3215.5614586061    187456.9921481874         7.6547768300         7.6742189552
 25   3        55.5122831044      3240.2007142854    187947.1074710753         7.6280230007         7.6633970313
 25   4        55.5122831044      3240.2007142854    187947.1074710738         7.6280230007         7.6633970313
 25   5        20.0339700777       812.3088734048     36419.0514257747         6.5310319813         7.2196641639
 25   6        20.0339700777       812.3088734047     36419.0514257747         6.5310319813         7.2196641639
 25   7        19.8435112822       828.5804023138     38154.3057398793         6.6232000246         7.2569461374
 25   8        19.8435112822       828.5804023138     38154.3057398794         6.6232000246         7.2569461374
 25   9        19.8617207885       826.2100110626     37771.1719384860         6.6049041200         7.2495454440
 25  10        19.8617207885       826.2100110626     37771.1719384859         6.6049041200         7.2495454440
 25  11        20.0264089506       816.2331440772     36710.6267067607         6.5446271797         7.2251634217
 25  12        20.0264089506       816.2331440772     36710.6267067606         6.5446271797         7.2251634217
 25  13        19.8340114222       823.8491373200     37629.0097891118         6.6009984555         7.2479656027
 25  14        19.8340114222       823.8491373200     37629.0097891117         6.6009984555         7.2479656027
 25  15        19.7758525956       825.2072559258     37968.0087178039         6.6207470544         7.2559539110
 25  16        19.7758525956       825.2072559258     37968.0087178034         6.6207470544         7.2559539110
 25  17        19.7753200280       824.8844233727     37955.6746581885         6.6202654984         7.2557591216
 25  18        19.7753200280       824.8844233727     37955.6746581887         6.6202654984         7.2557591216
 25  19        19.8474361641       825.4521014476     37725.1201802749         6.6040750159         7.2492100714
 25  20        19.8474361641       825.4521014476     37725.1201802750         6.6040750159         7.2492100714
 25  21        20.0233495405       815.7443981452     36672.7971661330         6.5431907946         7.2245824039
 25  22        20.0233495405       815.7443981452     36672.7971661331         6.5431907946         7.2245824039
 25  23        20.0466053871       813.0327420365     36465.5206655794         6.5320880241         7.2200913332
 25  24        20.0466053871       813.0327420365     36465.5206655794         6.5320880241         7.2200913332
 25  25        19.8560840544       825.0903723726     37712.5502233088         6.6028312333         7.2487069614
 26   1        54.5978180292      3215.5614586061    187456.9921481861         7.6547768300         7.6742189552
 26   2        54.5978180292      3215.5614586061    187456.9921481867         7.6547768300         7.6742189552
 26   3        55.5122831044      3240.2007142854    187947.1074710746         7.6280230007         7.6633970313
 26   4        55.5122831044      3240.2007142854    187947.1074710731         7.6280230007         7.6633970313
 26   5        20.0339700777       812.3088734047     36419.0514257746         6.5310319813         7.2196641639
 26   6        20.0339700777       812.3088734047     36419.0514257746         6.5310319813         7.2196641639
 26   7        19.8435112822       828.5804023138     38154.3057398792         6.6232000246         7.2569461374
 26   8        19.8435112822       828.5804023138     38154.3057398793         6.6232000246         7.2569461374
 26   9        19.8617207885       826.2100110626     37771.1719384859         6.6049041200         7.2495454440
 26  10        19.8617207885       826.2100110626     37771.1719384858         6.6049041200         7.2495454440
 26  11        20.0264089506       816.2331440772     36710.6267067606         6.5446271797         7.2251634217
 26  12        20.0264089506       816.2331440772     36710.6267067605         6.5446271797         7.2251634217
 26  13        19.8340114222       823.8491373200     37629.0097891117         6.6009984555         7.2479656027
 26  14        19.8340114222       823.8491373200     37629.0097891116         6.6009984555         7.2479656027
 26  15        19.7758525956       825.2072559258     37968.0087178038         6.6207470544         7.2559539110
 26  16        19.7758525956       825.2072559258     37968.0087178033         6.6207470544         7.2559539110
 26  17        19.7753200280       824.8844233727     37955.6746581884         6.6202654984         7.2557591216
 26  18        19.7753200280       824.8844233727     37955.6746581886         6.6202654984         7.2557591216
 26  19        19.8474361641       825.4521014476     37725.1201802747         6.6040750159         7.2492100714
 26  20        19.8474361641       825.4521014476     37725.1201802749         6.6040750159         7.2492100714
 26  21        20.0233495405       815.7443981452     36672.7971661329         6.5431907946         7.2245824039
 26  22        20.0233495405       815.7443981452     36672.7971661330         6.5431907946         7.2245824039
 26  23        20.0466053871       813.0327420364     36465.5206655793         6.5320880241         7.2200913332
 26  24        20.0466053871       813.0327420365     36465.5206655793         6.5320880241         7.2200913332
 26  25        19.8560840544       825.0903723726     37712.5502233087         6.6028312333         7.2487069614
 26  26        19.8560840544       825.0903723726     37712.5502233086         6.6028312333         7.2487069614
 27   1        54.5715907813      3231.7475188365    189780.8236918761         7.6793076992         7.6841416918
 27   2        54.5715907813      3231.7475188365    189780.8236918768         7.6793076992         7.6841416918
 27   3        55.4853799132      3256.6580219297    190292.6099209235         7.6526353733         7.6733527360
 27   4        55.4853799132      3256.6580219297    190292.6099209221         7.6526353733         7.6733527360
 27   5        20.0235610244       818.3926292621     37063.0054350049         6.5606227841         7.2316336437
 27   6        20.0235610244       818.3926292621     37063.0054350049         6.5606227841         7.2316336437
 27   7        19.8332073570       834.5941143035     38805.6130598083         6.6522028979         7.2686777997
 27   8        19.8332073570       834.5941143035     38805.6130598083         6.6522028979         7.2686777997
 27   9        19.8514142497       832.2311540661     38421.4095112436         6.6340628328         7.2613401433
 27  10        19.8514142497       832.2311540661     38421.4095112435         6.6340628328         7.2613401433
 27  11        20.0160090501       822.3126202354     37356.7534446090         6.5741468202         7.2371041163
 27  12        20.0160090501       822.3126202354     37356.7534446089         6.5741468202         7.2371041163
 27  13        19.8237110568       829.8621636086     38277.6383921807         6.6301772171         7.2597684118
 27  14        19.8237110568       829.8621636086     38277.6383921805         6.6301772171         7.2597684118
 27  15        19.7655647781       831.1999480043     38616.7551570055         6.6497675507         7.2676927017
 27  16        19.7655647781       831.1999480043     38616.7551570050         6.6497675507         7.2676927017
 27  17        19.7650484406       830.8777810771     38604.2584466013         6.6492847020         7.2674973895
 27  18        19.7650484406       830.8777810771     38604.2584466015         6.6492847020         7.2674973895
 27  19        19.8371415750       831.4691891422     38374.8094481076         6.6332402777         7.2610074198
 27  20        19.8371415750       831.4691891422     38374.8094481077         6.6332402777         7.2610074198
 27  21        20.0129511109       821.8231297625     37318.6210287940         6.5727200286         7.2365269790
 27  22        20.0129511109       821.8231297625     37318.6210287941         6.5727200286         7.2365269790
 27  23        20.0361903192       819.1202474638     37109.9978594122         6.5616703331         7.2320573772
 27  24        20.0361903192       819.1202474638     37109.9978594122         6.5616703331         7.2320573772
 27  25        19.8457743829       831.1100122212     38362.0798405384         6.6319945824         7.2605035361
 27  26        19.8457743829       831.1100122212     38362.0798405383         6.6319945824         7.2605035361
 27  27        19.8354708277       837.1232108183     39014.8349653152         6.6609457152         7.2722142693
 28   1        54.5715907813      3231.7475188364    189780.8236918756         7.6793076992         7.6841416918
 28   2        54.5715907813      3231.7475188365    189780.8236918763         7.6793076992         7.6841416918
 28   3        55.4853799132      3256.6580219297    190292.6099209230         7.6526353733         7.6733527360
 28   4        55.4853799132      3256.6580219297    190292.6099209215         7.6526353733         7.6733527360
 28   5        20.0235610244       818.3926292621     37063.0054350048         6.5606227841         7.2316336437
 28   6        20.0235610244       818.3926292621     37063.0054350048         6.5606227841         7.2316336437
 28   7        19.8332073570       834.5941143035     38805.6130598082         6.6522028979         7.2686777997
 28   8        19.8332073570       834.5941143035     38805.6130598082         6.6522028979         7.2686777997
 28   9        19.8514142497       832.2311540661     38421.4095112435         6.6340628328         7.2613401433
 28  10        19.8514142497       832.2311540661     38421.4095112434         6.6340628328         7.2613401433
 28  11        20.0160090501       822.3126202354     37356.7534446089         6.5741468202         7.2371041163
 28  12        20.0160090501       822.3126202354     37356.7534446088         6.5741468202         7.2371041163
 28  13        19.8237110568       829.8621636086     38277.6383921806         6.6301772171         7.2597684118
 28  14        19.8237110568       829.8621636086     38277.6383921804         6.6301772171         7.2597684118
 28  15        19.7655647781       831.1999480043     38616.7551570054         6.6497675507         7.2676927017
 28  16        19.7655647781       831.1999480043     38616.7551570049         6.6497675507         7.2676927017
 28  17        19.7650484406       830.8777810771     38604.2584466012         6.6492847020         7.2674973895
 28  18        19.7650484406       830.8777810771     38604.2584466014         6.6492847020         7.2674973895
 28  19        19.8371415750       831.4691891422     38374.8094481075         6.6332402777         7.2610074198
[...]
  Evdw   =  -1.650649310039E-01 Hartree,  -3.301298620078E-01 Ry
  Evdw6 =  -7.667575166549E-02 Hartree,  -1.533515033310E-01 Ry
  Evdw8 =  -4.920536971223E-02 Hartree,  -9.841073942447E-02 Ry
  Evdw10 =  -3.918380962617E-02 Hartree,  -7.836761925235E-02 Ry
  Evdw9  =   0.000000000000E+00 Hartree,   0.000000000000E+00 Ry
  Fvdw (01) =   1.030776617152E-04  -4.712672495938E-04  -4.524308474067E-04  Hartree/bohr
            =   2.061553234304E-04  -9.425344991876E-04  -9.048616948134E-04  Ry/bohr
  Fvdw (02) =   1.030776617152E-04   4.712672495938E-04  -4.524308474067E-04  Hartree/bohr
            =   2.061553234304E-04   9.425344991876E-04  -9.048616948134E-04  Ry/bohr
  Fvdw (03) =   1.128246754544E-04   5.893962061232E-04  -4.363080654002E-04  Hartree/bohr
            =   2.256493509089E-04   1.178792412246E-03  -8.726161308003E-04  Ry/bohr
  Fvdw (04) =   1.128246754545E-04  -5.893962061232E-04  -4.363080654001E-04  Hartree/bohr
            =   2.256493509089E-04  -1.178792412246E-03  -8.726161308003E-04  Ry/bohr
  Fvdw (05) =   3.249277694462E-04  -2.162988331063E-05   1.545795291563E-04  Hartree/bohr
            =   6.498555388923E-04  -4.325976662126E-05   3.091590583126E-04  Ry/bohr
  Fvdw (06) =   3.249277694462E-04   2.162988331063E-05   1.545795291563E-04  Hartree/bohr
            =   6.498555388923E-04   4.325976662125E-05   3.091590583126E-04  Ry/bohr
  Fvdw (07) =  -2.841026744122E-04   1.306066382490E-04  -6.315050158211E-05  Hartree/bohr
            =  -5.682053488243E-04   2.612132764980E-04  -1.263010031642E-04  Ry/bohr
  Fvdw (08) =  -2.841026744122E-04  -1.306066382490E-04  -6.315050158211E-05  Hartree/bohr
            =  -5.682053488243E-04  -2.612132764981E-04  -1.263010031642E-04  Ry/bohr
  Fvdw (09) =  -3.600337279853E-04   1.032328076073E-04  -1.560614683559E-04  Hartree/bohr
            =  -7.200674559706E-04   2.064656152146E-04  -3.121229367119E-04  Ry/bohr
  Fvdw (10) =  -3.600337279853E-04  -1.032328076073E-04  -1.560614683559E-04  Hartree/bohr
            =  -7.200674559706E-04  -2.064656152146E-04  -3.121229367119E-04  Ry/bohr
  Fvdw (11) =  -2.873060249607E-04  -2.326003724195E-05  -2.676750423987E-05  Hartree/bohr
            =  -5.746120499215E-04  -4.652007448389E-05  -5.353500847974E-05  Ry/bohr
  Fvdw (12) =  -2.873060249608E-04   2.326003724194E-05  -2.676750423987E-05  Hartree/bohr
            =  -5.746120499215E-04   4.652007448389E-05  -5.353500847974E-05  Ry/bohr
  Fvdw (13) =   5.109840987838E-04  -1.384350960772E-04   1.992241340694E-04  Hartree/bohr
            =   1.021968197568E-03  -2.768701921545E-04   3.984482681388E-04  Ry/bohr
  Fvdw (14) =   5.109840987838E-04   1.384350960772E-04   1.992241340694E-04  Hartree/bohr
            =   1.021968197568E-03   2.768701921545E-04   3.984482681388E-04  Ry/bohr
  Fvdw (15) =   2.786618486186E-04  -5.597258227514E-06   2.439570370557E-04  Hartree/bohr
            =   5.573236972371E-04  -1.119451645503E-05   4.879140741115E-04  Ry/bohr
  Fvdw (16) =   2.786618486186E-04   5.597258227513E-06   2.439570370557E-04  Hartree/bohr
            =   5.573236972371E-04   1.119451645503E-05   4.879140741115E-04  Ry/bohr
  Fvdw (17) =   3.059098270572E-04   1.653093472101E-04   1.646423285164E-04  Hartree/bohr
            =   6.118196541144E-04   3.306186944203E-04   3.292846570329E-04  Ry/bohr
  Fvdw (18) =   3.059098270572E-04  -1.653093472101E-04   1.646423285164E-04  Hartree/bohr
            =   6.118196541144E-04  -3.306186944203E-04   3.292846570329E-04  Ry/bohr
  Fvdw (19) =   4.033085727721E-04   1.291251824369E-04   4.568206158930E-05  Hartree/bohr
            =   8.066171455442E-04   2.582503648737E-04   9.136412317859E-05  Ry/bohr
  Fvdw (20) =   4.033085727721E-04  -1.291251824369E-04   4.568206158930E-05  Hartree/bohr
            =   8.066171455442E-04  -2.582503648737E-04   9.136412317859E-05  Ry/bohr
  Fvdw (21) =   2.713830623835E-04  -1.742495419902E-05   1.036032471533E-04  Hartree/bohr
            =   5.427661247671E-04  -3.484990839804E-05   2.072064943065E-04  Ry/bohr
  Fvdw (22) =   2.713830623835E-04   1.742495419902E-05   1.036032471533E-04  Hartree/bohr
            =   5.427661247671E-04   3.484990839804E-05   2.072064943065E-04  Ry/bohr
  Fvdw (23) =  -3.539211875897E-04  -1.475621696192E-05  -1.258367257790E-05  Hartree/bohr
            =  -7.078423751794E-04  -2.951243392385E-05  -2.516734515581E-05  Ry/bohr
  Fvdw (24) =  -3.539211875897E-04   1.475621696192E-05  -1.258367257790E-05  Hartree/bohr
            =  -7.078423751794E-04   2.951243392385E-05  -2.516734515581E-05  Ry/bohr
  Fvdw (25) =  -5.295056148787E-04  -1.138047336901E-04  -7.871230290303E-05  Hartree/bohr
            =  -1.059011229757E-03  -2.276094673802E-04  -1.574246058061E-04  Ry/bohr
  Fvdw (26) =  -5.295056148787E-04   1.138047336901E-04  -7.871230290304E-05  Hartree/bohr
            =  -1.059011229757E-03   2.276094673802E-04  -1.574246058061E-04  Ry/bohr
  Fvdw (27) =  -3.703837609409E-04   5.700500461064E-06  -1.860656946543E-05  Hartree/bohr
            =  -7.407675218818E-04   1.140100092213E-05  -3.721313893086E-05  Ry/bohr
  Fvdw (28) =  -3.703837609409E-04  -5.700500461063E-06  -1.860656946543E-05  Hartree/bohr
            =  -7.407675218818E-04  -1.140100092213E-05  -3.721313893086E-05  Ry/bohr
  Fvdw (29) =   2.243925597131E-04  -1.141036617953E-04   1.450521143513E-04  Hartree/bohr
            =   4.487851194262E-04  -2.282073235905E-04   2.901042287027E-04  Ry/bohr
  Fvdw (30) =   2.243925597131E-04   1.141036617953E-04   1.450521143513E-04  Hartree/bohr
            =   4.487851194262E-04   2.282073235905E-04   2.901042287027E-04  Ry/bohr
  Fvdw (31) =  -4.352635098591E-07   6.823211669013E-05   9.881315135042E-05  Hartree/bohr
            =  -8.705270197182E-07   1.364642333803E-04   1.976263027008E-04  Ry/bohr
  Fvdw (32) =  -4.352635098596E-07  -6.823211669013E-05   9.881315135042E-05  Hartree/bohr
            =  -8.705270197191E-07  -1.364642333803E-04   1.976263027008E-04  Ry/bohr
  Fvdw (33) =   4.075236588305E-05   4.061660915202E-05   9.407167086598E-05  Hartree/bohr
            =   8.150473176610E-05   8.123321830405E-05   1.881433417320E-04  Ry/bohr
  Fvdw (34) =   4.075236588305E-05  -4.061660915202E-05   9.407167086598E-05  Hartree/bohr
            =   8.150473176610E-05  -8.123321830405E-05   1.881433417320E-04  Ry/bohr
  Fvdw (35) =   1.380191031649E-04   9.579618066518E-05  -2.650100953924E-05  Hartree/bohr
            =   2.760382063297E-04   1.915923613304E-04  -5.300201907848E-05  Ry/bohr
  Fvdw (36) =   1.380191031649E-04  -9.579618066518E-05  -2.650100953924E-05  Hartree/bohr
            =   2.760382063297E-04  -1.915923613304E-04  -5.300201907848E-05  Ry/bohr
  Fvdw (37) =  -2.804201588640E-04  -1.047627821417E-04   3.734906136499E-05  Hartree/bohr
            =  -5.608403177279E-04  -2.095255642833E-04   7.469812272999E-05  Ry/bohr
  Fvdw (38) =  -2.804201588640E-04   1.047627821417E-04   3.734906136499E-05  Hartree/bohr
            =  -5.608403177279E-04   2.095255642833E-04   7.469812272998E-05  Ry/bohr
  Fvdw (39) =  -4.835978278211E-05   2.840076656213E-05   4.531685724476E-05  Hartree/bohr
            =  -9.671956556422E-05   5.680153312427E-05   9.063371448952E-05  Ry/bohr
  Fvdw (40) =  -4.835978278211E-05  -2.840076656213E-05   4.531685724476E-05  Hartree/bohr
            =  -9.671956556421E-05  -5.680153312427E-05   9.063371448952E-05  Ry/bohr
  Fvdw (41) =  -5.915609535409E-05   3.747991812856E-06   4.477780801044E-05  Hartree/bohr
            =  -1.183121907082E-04   7.495983625713E-06   8.955561602088E-05  Ry/bohr
  Fvdw (42) =  -5.915609535409E-05  -3.747991812856E-06   4.477780801044E-05  Hartree/bohr
            =  -1.183121907082E-04  -7.495983625712E-06   8.955561602089E-05  Ry/bohr
  Fvdw (43) =  -1.378899929242E-04   8.571393178356E-05  -9.669032909616E-05  Hartree/bohr
            =  -2.757799858483E-04   1.714278635671E-04  -1.933806581923E-04  Ry/bohr
  Fvdw (44) =  -1.378899929242E-04  -8.571393178356E-05  -9.669032909616E-05  Hartree/bohr
            =  -2.757799858483E-04  -1.714278635671E-04  -1.933806581923E-04  Ry/bohr
  Fvdw (45) =  -2.727260790158E-06  -6.562675330246E-05  -9.256730161855E-06  Hartree/bohr
            =  -5.454521580316E-06  -1.312535066049E-04  -1.851346032371E-05  Ry/bohr
  Fvdw (46) =  -2.727260790165E-06   6.562675330246E-05  -9.256730161854E-06  Hartree/bohr
            =  -5.454521580331E-06   1.312535066049E-04  -1.851346032371E-05  Ry/bohr
  sigma_vdw (Hy/bohr**3) =  -3.773491651289E-05  -4.465343342998E-21   1.509511877405E-06  
                            -4.465343342998E-21  -3.850824724281E-05   4.352257987973E-21  
                             1.509511877405E-06   4.352257987973E-21  -4.200492616985E-05  
  sigma_vdw (Ry/bohr**3) =  -7.546983302578E-05  -8.930686685996E-21   3.019023754811E-06  
                            -8.930686685996E-21  -7.701649448563E-05   8.704515975947E-21  
                             3.019023754811E-06   8.704515975947E-21  -8.400985233971E-05  
  sigma_vdw (GPa) =  -1.110199386403E+00  -1.313749147367E-16   4.441136525349E-02  
                     -1.313749147367E-16  -1.132951558163E+00   1.280478292847E-16  
                      4.441136525349E-02   1.280478292847E-16  -1.235827386653E+00  
 
 TIME (final):      205.4

!    total energy              =   -2878.10927126 Ry
     Harris-Foulkes estimate   =   -2878.10927127 Ry
     estimated scf accuracy    <          4.7E-09 Ry

     total all-electron energy =    -57190.803821 Ry

     The total energy is the sum of the following terms:

     one-electron contribution =    -820.86601095 Ry
     hartree contribution      =     527.13555939 Ry
     xc contribution           =    -324.72178669 Ry
     ewald contribution        =    -586.10902491 Ry
     Dispersion XDM Correction =      -0.33012986 Ry
     Uncorrected (XDM) energy  =   -2877.77914140 Ry
     one-center paw contrib.   =   -1673.21787825 Ry

     convergence has been achieved in  34 iterations

     Forces acting on atoms (Ry/au):

     atom    1 type  3   force =     0.00018557   -0.00050593   -0.00015659
     atom    2 type  3   force =     0.00018557    0.00050593   -0.00015659
     atom    3 type  3   force =     0.00035302    0.00017482   -0.00034291
     atom    4 type  3   force =     0.00035302   -0.00017482   -0.00034291
     atom    5 type  1   force =     0.00004161   -0.00007997    0.00000347
     atom    6 type  1   force =     0.00004161    0.00007997    0.00000347
     atom    7 type  1   force =    -0.00012521   -0.00030764    0.00031343
     atom    8 type  1   force =    -0.00012521    0.00030764    0.00031343
     atom    9 type  1   force =     0.00004422    0.00009390   -0.00033531
     atom   10 type  1   force =     0.00004422   -0.00009390   -0.00033531
     atom   11 type  1   force =     0.00015863   -0.00023755   -0.00022992
     atom   12 type  1   force =     0.00015863    0.00023755   -0.00022992
     atom   13 type  1   force =    -0.00049513   -0.00021603   -0.00041008
     atom   14 type  1   force =    -0.00049513    0.00021603   -0.00041008
     atom   15 type  1   force =    -0.00012432    0.00022549   -0.00020762
     atom   16 type  1   force =    -0.00012432   -0.00022549   -0.00020762
     atom   17 type  1   force =     0.00012817   -0.00014453    0.00002650
     atom   18 type  1   force =     0.00012817    0.00014453    0.00002650
     atom   19 type  1   force =     0.00011914   -0.00010062   -0.00047034
     atom   20 type  1   force =     0.00011914    0.00010062   -0.00047034
     atom   21 type  1   force =     0.00012308   -0.00060127   -0.00047702
     atom   22 type  1   force =     0.00012308    0.00060127   -0.00047702
     atom   23 type  1   force =    -0.00009679    0.00023627   -0.00005127
     atom   24 type  1   force =    -0.00009679   -0.00023627   -0.00005127
     atom   25 type  1   force =     0.00054555   -0.00024949    0.00020062
     atom   26 type  1   force =     0.00054555    0.00024949    0.00020062
     atom   27 type  1   force =    -0.00000322    0.00016336    0.00018529
     atom   28 type  1   force =    -0.00000322   -0.00016336    0.00018529
     atom   29 type  4   force =     0.00044447    0.00008477    0.00034721
     atom   30 type  4   force =     0.00044447   -0.00008477    0.00034721
     atom   31 type  4   force =    -0.00020263    0.00003551    0.00032492
     atom   32 type  4   force =    -0.00020263   -0.00003551    0.00032492
     atom   33 type  4   force =    -0.00031208   -0.00018029   -0.00008726
     atom   34 type  4   force =    -0.00031208    0.00018029   -0.00008726
     atom   35 type  4   force =     0.00042731    0.00008249    0.00060819
     atom   36 type  4   force =     0.00042731   -0.00008249    0.00060819
     atom   37 type  4   force =    -0.00041907    0.00001640    0.00044034
     atom   38 type  4   force =    -0.00041907   -0.00001640    0.00044034
     atom   39 type  4   force =     0.00006664    0.00040800    0.00079323
     atom   40 type  4   force =     0.00006664   -0.00040800    0.00079323
     atom   41 type  4   force =    -0.00028510    0.00006831    0.00018598
     atom   42 type  4   force =    -0.00028510   -0.00006831    0.00018598
     atom   43 type  4   force =    -0.00068408    0.00010280    0.00004478
     atom   44 type  4   force =    -0.00068408   -0.00010280    0.00004478
     atom   45 type  2   force =     0.00011022   -0.00018893   -0.00070564
     atom   46 type  2   force =     0.00011022    0.00018893   -0.00070564

     Total force =     0.003615     Total SCF correction =     0.000179

     Total XDM Dispersion Force =     0.005047

     XDM Dispersion forces acting on atoms:
     atom    1 type  3   force =     0.00020616   -0.00094253   -0.00090486
     atom    2 type  3   force =     0.00020616    0.00094253   -0.00090486
     atom    3 type  3   force =     0.00022565    0.00117879   -0.00087262
     atom    4 type  3   force =     0.00022565   -0.00117879   -0.00087262
     atom    5 type  1   force =     0.00064986   -0.00004326    0.00030916
     atom    6 type  1   force =     0.00064986    0.00004326    0.00030916
     atom    7 type  1   force =    -0.00056821    0.00026121   -0.00012630
     atom    8 type  1   force =    -0.00056821   -0.00026121   -0.00012630
     atom    9 type  1   force =    -0.00072007    0.00020647   -0.00031212
     atom   10 type  1   force =    -0.00072007   -0.00020647   -0.00031212
     atom   11 type  1   force =    -0.00057461   -0.00004652   -0.00005354
     atom   12 type  1   force =    -0.00057461    0.00004652   -0.00005354
     atom   13 type  1   force =     0.00102197   -0.00027687    0.00039845
     atom   14 type  1   force =     0.00102197    0.00027687    0.00039845
     atom   15 type  1   force =     0.00055732   -0.00001119    0.00048791
     atom   16 type  1   force =     0.00055732    0.00001119    0.00048791
     atom   17 type  1   force =     0.00061182    0.00033062    0.00032928
     atom   18 type  1   force =     0.00061182   -0.00033062    0.00032928
     atom   19 type  1   force =     0.00080662    0.00025825    0.00009136
     atom   20 type  1   force =     0.00080662   -0.00025825    0.00009136
     atom   21 type  1   force =     0.00054277   -0.00003485    0.00020721
     atom   22 type  1   force =     0.00054277    0.00003485    0.00020721
     atom   23 type  1   force =    -0.00070784   -0.00002951   -0.00002517
     atom   24 type  1   force =    -0.00070784    0.00002951   -0.00002517
     atom   25 type  1   force =    -0.00105901   -0.00022761   -0.00015742
     atom   26 type  1   force =    -0.00105901    0.00022761   -0.00015742
     atom   27 type  1   force =    -0.00074077    0.00001140   -0.00003721
     atom   28 type  1   force =    -0.00074077   -0.00001140   -0.00003721
     atom   29 type  4   force =     0.00044879   -0.00022821    0.00029010
     atom   30 type  4   force =     0.00044879    0.00022821    0.00029010
     atom   31 type  4   force =    -0.00000087    0.00013646    0.00019763
     atom   32 type  4   force =    -0.00000087   -0.00013646    0.00019763
     atom   33 type  4   force =     0.00008150    0.00008123    0.00018814
     atom   34 type  4   force =     0.00008150   -0.00008123    0.00018814
     atom   35 type  4   force =     0.00027604    0.00019159   -0.00005300
     atom   36 type  4   force =     0.00027604   -0.00019159   -0.00005300
     atom   37 type  4   force =    -0.00056084   -0.00020953    0.00007470
     atom   38 type  4   force =    -0.00056084    0.00020953    0.00007470
     atom   39 type  4   force =    -0.00009672    0.00005680    0.00009063
     atom   40 type  4   force =    -0.00009672   -0.00005680    0.00009063
     atom   41 type  4   force =    -0.00011831    0.00000750    0.00008956
     atom   42 type  4   force =    -0.00011831   -0.00000750    0.00008956
     atom   43 type  4   force =    -0.00027578    0.00017143   -0.00019338
     atom   44 type  4   force =    -0.00027578   -0.00017143   -0.00019338
     atom   45 type  2   force =    -0.00000545   -0.00013125   -0.00001851
     atom   46 type  2   force =    -0.00000545    0.00013125   -0.00001851


     entering subroutine stress ...

          total   stress  (Ry/bohr**3)                   (kbar)     P=   -0.04
  -0.00000137   0.00000000  -0.00000099         -0.20      0.00     -0.15
   0.00000000   0.00000068   0.00000000          0.00      0.10      0.00
  -0.00000099   0.00000000  -0.00000005         -0.15      0.00     -0.01


     Writing output data file epxars_2.save
 
     init_run     :     30.47s CPU     31.88s WALL (       2 calls)
     electrons    :   1469.27s CPU   1523.32s WALL (       2 calls)
     forces       :     30.29s CPU     30.61s WALL (       2 calls)
     stress       :     70.02s CPU     71.42s WALL (       2 calls)

     Called by init_run:
     wfcinit      :      7.59s CPU      8.05s WALL (       2 calls)
     potinit      :      8.88s CPU      8.94s WALL (       2 calls)

     Called by electrons:
     c_bands      :    699.41s CPU    725.07s WALL (      79 calls)
     sum_band     :    369.57s CPU    385.50s WALL (      79 calls)
     v_of_rho     :     34.27s CPU     35.29s WALL (      81 calls)
     newd         :    115.46s CPU    118.95s WALL (      81 calls)
     mix_rho      :     21.48s CPU     21.93s WALL (      79 calls)

     Called by c_bands:
     init_us_2    :      4.61s CPU      4.62s WALL (     328 calls)
     cegterg      :    690.16s CPU    709.29s WALL (     158 calls)

     Called by *egterg:
     h_psi        :    431.27s CPU    439.95s WALL (     807 calls)
     s_psi        :     51.85s CPU     51.87s WALL (     807 calls)
     g_psi        :      2.86s CPU      2.87s WALL (     645 calls)
     cdiaghg      :     66.68s CPU     66.82s WALL (     803 calls)

     Called by h_psi:
     add_vuspsi   :     52.49s CPU     52.51s WALL (     807 calls)

     General routines
     calbec       :     76.20s CPU     79.53s WALL (     973 calls)
     fft          :     26.06s CPU     32.18s WALL (    2399 calls)
     ffts         :      1.20s CPU      1.29s WALL (     320 calls)
     fftw         :    484.23s CPU    501.79s WALL (  183924 calls)
     interpolate  :      5.31s CPU      5.47s WALL (     320 calls)
     davcio       :      0.01s CPU      7.62s WALL (     486 calls)
 
     Parallel routines
     fft_scatter  :    111.71s CPU    133.48s WALL (  186643 calls)
 
     PAW routines
     PAW_pot      :     21.82s CPU     21.98s WALL (      81 calls)
     PAW_ddot     :     13.77s CPU     13.91s WALL (    2987 calls)
     PAW_symme    :      0.01s CPU      0.02s WALL (     160 calls)
 
     PWSCF        : 26m41.49s CPU    27m39.24s WALL

 
   This run was terminated on:  18: 0:52  18Oct2012            

=------------------------------------------------------------------------------=
   JOB DONE.
=------------------------------------------------------------------------------=
