
     Program PWSCF v.4.3.2      starts on 15Oct2012 at 19:56: 2 

     This program is part of the open-source Quantum ESPRESSO suite
     for quantum simulation of materials; please cite
         "P. Giannozzi et al., J. Phys.:Condens. Matter 21 395502 (2009);
          URL http://www.quantum-espresso.org", 
     in publications or presentations arising from this work. More details at
     http://www.quantum-espresso.org/wiki/index.php/Citing_Quantum-ESPRESSO

     Parallel version (MPI), running on     4 processors
     R & G space division:  proc/pool =    4

     Current dimensions of program PWSCF are:
     Max number of different atomic species (ntypx) = 10
     Max number of k-points (npk) =  40000
     Max angular momentum in pseudopotentials (lmaxx) =  3
     Waiting for input...
     Reading input from stdin
               file c.UPF: wavefunction(s)  2P renormalized
               file h.UPF: wavefunction(s)  1S renormalized
               file o.UPF: wavefunction(s)  2P renormalized

     Subspace diagonalization in iterative solution of the eigenvalue problem:
     a serial algorithm will be used

 
     Parallelization info
     --------------------
     sticks:   dense  smooth     PW     G-vecs:    dense   smooth      PW
     Min        1642    1095    288               102302    55688    7503
     Max        1643    1096    289               102303    55704    7505
     Sum        6571    4381   1155               409209   222777   30017
 

     Title: 
     epxars_2                                                                   


     bravais-lattice index     =            0
     lattice parameter (alat)  =       1.0000  a.u.
     unit-cell volume          =    3548.4730 (a.u.)^3
     number of atoms/cell      =           46
     number of atomic types    =            4
     number of electrons       =       144.00
     number of Kohn-Sham states=           72
     kinetic-energy cutoff     =      60.0000  Ry
     charge density cutoff     =     360.0000  Ry
     convergence threshold     =      1.0E-08
     mixing beta               =       0.7000
     number of iterations used =            8  plain     mixing
     Exchange-correlation      =  NOX  PW   PW86 PBC ( 0 417 4 0)
     EXX-fraction              =        0.00
     nstep                     =           50


     celldm(1)=   1.000000  celldm(2)=   0.000000  celldm(3)=   0.000000
     celldm(4)=   0.000000  celldm(5)=   0.000000  celldm(6)=   0.000000

     crystal axes: (cart. coord. in units of alat)
               a(1) = (  19.141552   0.000000   0.198822 )  
               a(2) = (   0.000000  11.969050   0.000000 )  
               a(3) = (  -3.810694   0.000000  15.448752 )  

     reciprocal axes: (cart. coord. in units 2 pi/alat)
               b(1) = (  0.052109  0.000000  0.012854 )  
               b(2) = (  0.000000  0.083549  0.000000 )  
               b(3) = ( -0.000671  0.000000  0.064565 )  


     PseudoPot. # 1 for  C read from file:
     ./c.UPF
     MD5 check sum: 59d3a4af416b94ce846c69cefa103580
     Pseudo is Projector augmented-wave + core cor, Zval =  4.0
     Generated using "atomic" code by A. Dal Corso  (Quantum ESPRESSO distribution)
     Shape of augmentation charge: BESSEL
     Using radial grid of 1073 points,  4 beta functions with: 
                l(1) =   0
                l(2) =   0
                l(3) =   1
                l(4) =   1
     Q(r) pseudized with 0 coefficients 


     PseudoPot. # 2 for  H read from file:
     ./h.UPF
     MD5 check sum: 465503140a8a8e79e3a70d3488897feb
     Pseudo is Projector augmented-wave, Zval =  1.0
     Generated using "atomic" code by A. Dal Corso  (Quantum ESPRESSO distribution)
     Shape of augmentation charge: PSQ
     Using radial grid of  929 points,  2 beta functions with: 
                l(1) =   0
                l(2) =   0
     Q(r) pseudized with 0 coefficients 


     PseudoPot. # 3 for  O read from file:
     ./o.UPF
     MD5 check sum: 7b405463629fa2aaa019ec68516902cf
     Pseudo is Projector augmented-wave + core cor, Zval =  6.0
     Generated using "atomic" code by A. Dal Corso  (Quantum ESPRESSO distribution)
     Shape of augmentation charge: BESSEL
     Using radial grid of 1095 points,  4 beta functions with: 
                l(1) =   0
                l(2) =   0
                l(3) =   1
                l(4) =   1
     Q(r) pseudized with 0 coefficients 


     PseudoPot. # 4 for As read from file:
     ./as.UPF
     MD5 check sum: c4211a47c95e243bf5c6b176bad74a68
     Pseudo is Projector augmented-wave + core cor, Zval =  5.0
     Generated using "atomic" code by A. Dal Corso  (Quantum ESPRESSO distribution)
     Shape of augmentation charge: PSQ
     Using radial grid of 1209 points,  4 beta functions with: 
                l(1) =   0
                l(2) =   0
                l(3) =   1
                l(4) =   1
     Q(r) pseudized with 0 coefficients 


     atomic species   valence    mass     pseudopotential
        c              4.00    12.01070      C( 1.00)
        h              1.00     1.00794      H( 1.00)
        o              6.00    15.99940      O( 1.00)
        as             5.00    74.92160     As( 1.00)

      2 Sym.Ops. (no inversion)


   Cartesian axes

     site n.     atom                  positions (alat units)
         1           as  tau(   1) = (  -1.8998061  11.7207930   7.7637814  )
         2           as  tau(   2) = (  -3.8051530   0.2482569  15.4881572  )
         3           as  tau(   3) = (  17.6882417   5.1768426   5.9345889  )
         4           as  tau(   4) = (  15.7828948   6.7922073  13.6589647  )
         5           c   tau(   5) = (  14.1931592   1.9112336   8.5576144  )
         6           c   tau(   6) = (  16.0985060  10.0578163   0.8332385  )
         7           c   tau(   7) = (   3.7757735   5.3742603  12.0030095  )
         8           c   tau(   8) = (   5.6811204   6.5947897   4.2786337  )
         9           c   tau(   9) = (   2.2943193   6.1562852   9.9613065  )
        10           c   tau(  10) = (   4.1996661   5.8127647   2.2369307  )
        11           c   tau(  11) = (   0.6531892   4.4443673   8.8097453  )
        12           c   tau(  12) = (   2.5585361   7.5246827   1.0853695  )
        13           c   tau(  13) = (  11.9579768   1.0774707   9.6825706  )
        14           c   tau(  14) = (  13.8633237  10.8915792   1.9581948  )
        15           c   tau(  15) = (   9.9289353   2.7524141   9.9310512  )
        16           c   tau(  16) = (  11.8342821   9.2166358   2.2066754  )
        17           c   tau(  17) = (  10.1592413   5.2471152   9.1003920  )
        18           c   tau(  18) = (  12.0645882   6.7219348   1.3760162  )
        19           c   tau(  19) = (  12.3956420   6.0708438   7.9598003  )
        20           c   tau(  20) = (  14.3009889   5.8982061   0.2354245  )
        21           c   tau(  21) = (  14.4071054   4.3886257   7.6788630  )
        22           c   tau(  22) = (  12.5017585   7.5804242  15.4032388  )
        23           c   tau(  23) = (   0.4768336   1.9703908   9.7066434  )
        24           c   tau(  24) = (   2.3821805   9.9986592   1.9822676  )
        25           c   tau(  25) = (   1.9510543   1.1765464  11.7451864  )
        26           c   tau(  26) = (   3.8564012  10.7925035   4.0208106  )
        27           c   tau(  27) = (   3.6150763   2.8890514  12.8812899  )
        28           c   tau(  28) = (   5.5204232   9.0799986   5.1569141  )
        29           h   tau(  29) = (  11.8088481  11.1286535  10.4015025  )
        30           h   tau(  30) = (  13.7141949   0.8403964   2.6771267  )
        31           h   tau(  31) = (   8.1747725   2.1218249  10.7959934  )
        32           h   tau(  32) = (  10.0801194   9.8472250   3.0716176  )
        33           h   tau(  33) = (   8.5916796   6.5505122   9.3585813  )
        34           h   tau(  34) = (  10.4970265   5.4185377   1.6342055  )
        35           h   tau(  35) = (  12.5566226   8.0047637   7.2856780  )
        36           h   tau(  36) = (  10.6512757   3.9642862  15.0100538  )
        37           h   tau(  37) = (   1.7826047  11.2296634  12.4668306  )
        38           h   tau(  38) = (   3.6879516   0.7393865   4.7424548  )
        39           h   tau(  39) = (   4.7743987   2.2784023  14.4675154  )
        40           h   tau(  40) = (   6.6797455   9.6906476   6.7431396  )
        41           h   tau(  41) = (   5.0502583   6.7016466  12.9168446  )
        42           h   tau(  42) = (   6.9556052   5.2674034   5.1924688  )
        43           h   tau(  43) = (   2.4387794   8.0828386   9.2642008  )
        44           h   tau(  44) = (   4.3441262   3.8862113   1.5398250  )
        45           o   tau(  45) = (  -1.1829025   1.7446208   4.8212462  )
        46           o   tau(  46) = (  -3.0882494  10.2244291  12.5456220  )

     number of k points=     2
                       cart. coord. in units 2pi/alat
        k(    1) = (   0.0128596   0.0208872   0.0193546), wk =   1.0000000
        k(    2) = (   0.0131949   0.0208872  -0.0129278), wk =   1.0000000

     Dense  grid:   409209 G-vectors     FFT dimensions: ( 120,  75, 100)

     Smooth grid:   222777 G-vectors     FFT dimensions: (  96,  60,  80)

     Largest allocated arrays     est. size (Mb)     dimensions
        Kohn-Sham Wavefunctions         7.66 Mb     (   6970,   72)
        NL pseudopotentials            28.93 Mb     (   6970,  272)
        Each V/rho on FFT grid          3.43 Mb     ( 225000)
        Each G-vector array             0.78 Mb     ( 102303)
        G-vector shells                 0.78 Mb     ( 102303)
     Largest temporary arrays     est. size (Mb)     dimensions
        Auxiliary wavefunctions        30.63 Mb     (   6970,  288)
        Each subspace H/S matrix        1.27 Mb     ( 288, 288)
        Each <psi_i|beta_j> matrix      0.30 Mb     (    272,   72)
        Arrays for rho mixing          27.47 Mb     ( 225000,   8)

     Check: negative/imaginary core charge=   -0.000001    0.000000

     Initial potential from superposition of free atoms

     starting charge  143.99796, renormalised to  144.00000
     Starting wfc are  136 atomic wfcs
     Checking if some PAW data can be deallocated... 

     total cpu time spent up to now is       28.0 secs

     per-process dynamical memory:   114.6 Mb

     Self-consistent Calculation

     iteration #  1     ecut=    60.00 Ry     beta=0.70
     Davidson diagonalization with overlap
     ethr =  1.00E-02,  avg # of iterations =  7.5

     total cpu time spent up to now is       57.5 secs

     total energy              =   -1253.65097845 Ry
     Harris-Foulkes estimate   =   -1257.86183914 Ry
     estimated scf accuracy    <      35.80090453 Ry

     iteration #  2     ecut=    60.00 Ry     beta=0.70
     Davidson diagonalization with overlap
     ethr =  1.00E-02,  avg # of iterations =  3.0

     total cpu time spent up to now is       81.6 secs

     total energy              =   -1253.79153104 Ry
     Harris-Foulkes estimate   =   -1254.92486646 Ry
     estimated scf accuracy    <      10.10965344 Ry

     iteration #  3     ecut=    60.00 Ry     beta=0.70
     Davidson diagonalization with overlap
     ethr =  7.02E-03,  avg # of iterations =  6.5

     total cpu time spent up to now is      112.3 secs

     total energy              =   -1254.26709884 Ry
     Harris-Foulkes estimate   =   -1258.22573628 Ry
     estimated scf accuracy    <      15.14097247 Ry

     iteration #  4     ecut=    60.00 Ry     beta=0.70
     Davidson diagonalization with overlap
     ethr =  7.02E-03,  avg # of iterations =  3.5

     total cpu time spent up to now is      136.7 secs

     total energy              =   -1253.95870578 Ry
     Harris-Foulkes estimate   =   -1255.08933742 Ry
     estimated scf accuracy    <       2.06223665 Ry

     iteration #  5     ecut=    60.00 Ry     beta=0.70
     Davidson diagonalization with overlap
     ethr =  1.43E-03,  avg # of iterations =  5.0

     total cpu time spent up to now is      171.2 secs

     total energy              =   -1255.26896996 Ry
     Harris-Foulkes estimate   =   -1257.31958912 Ry
     estimated scf accuracy    <       6.72628122 Ry

     iteration #  6     ecut=    60.00 Ry     beta=0.70
     Davidson diagonalization with overlap
     ethr =  1.43E-03,  avg # of iterations =  7.0

     total cpu time spent up to now is      197.9 secs

     total energy              =   -1255.62621365 Ry
     Harris-Foulkes estimate   =   -1255.77929785 Ry
     estimated scf accuracy    <       0.61279539 Ry

     iteration #  7     ecut=    60.00 Ry     beta=0.70
     Davidson diagonalization with overlap
     ethr =  4.26E-04,  avg # of iterations =  4.5

     total cpu time spent up to now is      228.4 secs

     total energy              =   -1255.93346441 Ry
     Harris-Foulkes estimate   =   -1255.93798990 Ry
     estimated scf accuracy    <       0.05626172 Ry

     iteration #  8     ecut=    60.00 Ry     beta=0.70
     Davidson diagonalization with overlap
     ethr =  3.91E-05,  avg # of iterations =  7.0

     total cpu time spent up to now is      256.0 secs

     total energy              =   -1255.92170935 Ry
     Harris-Foulkes estimate   =   -1255.95148080 Ry
     estimated scf accuracy    <       0.06921222 Ry

     iteration #  9     ecut=    60.00 Ry     beta=0.70
     Davidson diagonalization with overlap
     ethr =  3.91E-05,  avg # of iterations =  1.0

     total cpu time spent up to now is      279.4 secs

     total energy              =   -1255.91558922 Ry
     Harris-Foulkes estimate   =   -1255.92323150 Ry
     estimated scf accuracy    <       0.01787379 Ry

     iteration # 10     ecut=    60.00 Ry     beta=0.70
     Davidson diagonalization with overlap
     ethr =  1.24E-05,  avg # of iterations =  4.5

     total cpu time spent up to now is      314.3 secs

     total energy              =   -1255.94330272 Ry
     Harris-Foulkes estimate   =   -1255.94341904 Ry
     estimated scf accuracy    <       0.03855885 Ry

     iteration # 11     ecut=    60.00 Ry     beta=0.70
     Davidson diagonalization with overlap
     ethr =  1.24E-05,  avg # of iterations =  1.0

     total cpu time spent up to now is      337.7 secs

     total energy              =   -1255.91948742 Ry
     Harris-Foulkes estimate   =   -1255.94337461 Ry
     estimated scf accuracy    <       0.03877815 Ry

     iteration # 12     ecut=    60.00 Ry     beta=0.70
     Davidson diagonalization with overlap
     ethr =  1.24E-05,  avg # of iterations =  6.5

     total cpu time spent up to now is      371.5 secs

     total energy              =   -1255.93685681 Ry
     Harris-Foulkes estimate   =   -1255.93877446 Ry
     estimated scf accuracy    <       0.02029109 Ry

     iteration # 13     ecut=    60.00 Ry     beta=0.70
     Davidson diagonalization with overlap
     ethr =  1.24E-05,  avg # of iterations =  1.0

     total cpu time spent up to now is      394.9 secs

     total energy              =   -1255.93112822 Ry
     Harris-Foulkes estimate   =   -1255.93694878 Ry
     estimated scf accuracy    <       0.01746452 Ry

     iteration # 14     ecut=    60.00 Ry     beta=0.70
     Davidson diagonalization with overlap
     ethr =  1.21E-05,  avg # of iterations =  1.0

     total cpu time spent up to now is      418.3 secs

     total energy              =   -1255.92735015 Ry
     Harris-Foulkes estimate   =   -1255.93136808 Ry
     estimated scf accuracy    <       0.00811879 Ry

     iteration # 15     ecut=    60.00 Ry     beta=0.70
     Davidson diagonalization with overlap
     ethr =  5.64E-06,  avg # of iterations =  4.5

     total cpu time spent up to now is      451.9 secs

     total energy              =   -1255.93495021 Ry
     Harris-Foulkes estimate   =   -1255.93529304 Ry
     estimated scf accuracy    <       0.00745365 Ry

     iteration # 16     ecut=    60.00 Ry     beta=0.70
     Davidson diagonalization with overlap
     ethr =  5.18E-06,  avg # of iterations =  1.0

     total cpu time spent up to now is      475.3 secs

     total energy              =   -1255.93516986 Ry
     Harris-Foulkes estimate   =   -1255.93499658 Ry
     estimated scf accuracy    <       0.00699454 Ry

     iteration # 17     ecut=    60.00 Ry     beta=0.70
     Davidson diagonalization with overlap
     ethr =  4.86E-06,  avg # of iterations =  1.0

     total cpu time spent up to now is      498.8 secs

     total energy              =   -1255.93525275 Ry
     Harris-Foulkes estimate   =   -1255.93519507 Ry
     estimated scf accuracy    <       0.00724331 Ry

     iteration # 18     ecut=    60.00 Ry     beta=0.70
     Davidson diagonalization with overlap
     ethr =  4.86E-06,  avg # of iterations =  1.0

     total cpu time spent up to now is      522.2 secs

     total energy              =   -1255.93328073 Ry
     Harris-Foulkes estimate   =   -1255.93527450 Ry
     estimated scf accuracy    <       0.00739711 Ry

     iteration # 19     ecut=    60.00 Ry     beta=0.70
     Davidson diagonalization with overlap
     ethr =  4.86E-06,  avg # of iterations =  1.0

     total cpu time spent up to now is      545.6 secs

     total energy              =   -1255.93274413 Ry
     Harris-Foulkes estimate   =   -1255.93333183 Ry
     estimated scf accuracy    <       0.00425362 Ry

     iteration # 20     ecut=    60.00 Ry     beta=0.70
     Davidson diagonalization with overlap
     ethr =  2.95E-06,  avg # of iterations =  1.0

     total cpu time spent up to now is      569.0 secs

     total energy              =   -1255.93270835 Ry
     Harris-Foulkes estimate   =   -1255.93284024 Ry
     estimated scf accuracy    <       0.00304152 Ry

     iteration # 21     ecut=    60.00 Ry     beta=0.70
     Davidson diagonalization with overlap
     ethr =  2.11E-06,  avg # of iterations =  1.0

     total cpu time spent up to now is      592.4 secs

     total energy              =   -1255.93281307 Ry
     Harris-Foulkes estimate   =   -1255.93277466 Ry
     estimated scf accuracy    <       0.00269332 Ry

     iteration # 22     ecut=    60.00 Ry     beta=0.70
     Davidson diagonalization with overlap
     ethr =  1.87E-06,  avg # of iterations =  1.0

     total cpu time spent up to now is      615.8 secs

     total energy              =   -1255.93284567 Ry
     Harris-Foulkes estimate   =   -1255.93286360 Ry
     estimated scf accuracy    <       0.00255540 Ry

     iteration # 23     ecut=    60.00 Ry     beta=0.70
     Davidson diagonalization with overlap
     ethr =  1.77E-06,  avg # of iterations =  1.0

     total cpu time spent up to now is      639.3 secs

     total energy              =   -1255.93156273 Ry
     Harris-Foulkes estimate   =   -1255.93288696 Ry
     estimated scf accuracy    <       0.00238885 Ry

     iteration # 24     ecut=    60.00 Ry     beta=0.70
     Davidson diagonalization with overlap
     ethr =  1.66E-06,  avg # of iterations =  5.0

     total cpu time spent up to now is      673.7 secs

     total energy              =   -1255.93399242 Ry
     Harris-Foulkes estimate   =   -1255.93417603 Ry
     estimated scf accuracy    <       0.00346690 Ry

     iteration # 25     ecut=    60.00 Ry     beta=0.70
     Davidson diagonalization with overlap
     ethr =  1.66E-06,  avg # of iterations =  2.0

     total cpu time spent up to now is      697.3 secs

     total energy              =   -1255.93388835 Ry
     Harris-Foulkes estimate   =   -1255.93404803 Ry
     estimated scf accuracy    <       0.00300521 Ry

     iteration # 26     ecut=    60.00 Ry     beta=0.70
     Davidson diagonalization with overlap
     ethr =  1.66E-06,  avg # of iterations =  1.0

     total cpu time spent up to now is      720.8 secs

     total energy              =   -1255.93421081 Ry
     Harris-Foulkes estimate   =   -1255.93390774 Ry
     estimated scf accuracy    <       0.00271718 Ry

     iteration # 27     ecut=    60.00 Ry     beta=0.70
     Davidson diagonalization with overlap
     ethr =  1.66E-06,  avg # of iterations =  1.0

     total cpu time spent up to now is      744.2 secs

     total energy              =   -1255.93253444 Ry
     Harris-Foulkes estimate   =   -1255.93422482 Ry
     estimated scf accuracy    <       0.00317839 Ry

     iteration # 28     ecut=    60.00 Ry     beta=0.70
     Davidson diagonalization with overlap
     ethr =  1.66E-06,  avg # of iterations =  6.5

     total cpu time spent up to now is      769.0 secs

     total energy              =   -1255.93259602 Ry
     Harris-Foulkes estimate   =   -1255.93273091 Ry
     estimated scf accuracy    <       0.00048177 Ry

     iteration # 29     ecut=    60.00 Ry     beta=0.70
     Davidson diagonalization with overlap
     ethr =  3.35E-07,  avg # of iterations =  6.0

     total cpu time spent up to now is      805.0 secs

     total energy              =   -1255.93316536 Ry
     Harris-Foulkes estimate   =   -1255.93357238 Ry
     estimated scf accuracy    <       0.00094107 Ry

     iteration # 30     ecut=    60.00 Ry     beta=0.70
     Davidson diagonalization with overlap
     ethr =  3.35E-07,  avg # of iterations =  1.0

     total cpu time spent up to now is      828.4 secs

     total energy              =   -1255.93317713 Ry
     Harris-Foulkes estimate   =   -1255.93317912 Ry
     estimated scf accuracy    <       0.00038058 Ry

     iteration # 31     ecut=    60.00 Ry     beta=0.70
     Davidson diagonalization with overlap
     ethr =  2.64E-07,  avg # of iterations =  1.0

     total cpu time spent up to now is      851.9 secs

     total energy              =   -1255.93313620 Ry
     Harris-Foulkes estimate   =   -1255.93318763 Ry
     estimated scf accuracy    <       0.00037016 Ry

     iteration # 32     ecut=    60.00 Ry     beta=0.70
     Davidson diagonalization with overlap
     ethr =  2.57E-07,  avg # of iterations =  1.0

     total cpu time spent up to now is      875.3 secs

     total energy              =   -1255.93350480 Ry
     Harris-Foulkes estimate   =   -1255.93314836 Ry
     estimated scf accuracy    <       0.00027416 Ry

     iteration # 33     ecut=    60.00 Ry     beta=0.70
     Davidson diagonalization with overlap
     ethr =  1.90E-07,  avg # of iterations =  1.0

     total cpu time spent up to now is      898.7 secs

     total energy              =   -1255.93314941 Ry
     Harris-Foulkes estimate   =   -1255.93351575 Ry
     estimated scf accuracy    <       0.00073596 Ry

     iteration # 34     ecut=    60.00 Ry     beta=0.70
     Davidson diagonalization with overlap
     ethr =  1.90E-07,  avg # of iterations =  8.5

     total cpu time spent up to now is      931.1 secs

     total energy              =   -1255.93335494 Ry
     Harris-Foulkes estimate   =   -1255.93336034 Ry
     estimated scf accuracy    <       0.00026070 Ry

     iteration # 35     ecut=    60.00 Ry     beta=0.70
     Davidson diagonalization with overlap
     ethr =  1.81E-07,  avg # of iterations =  1.0

     total cpu time spent up to now is      954.6 secs

     total energy              =   -1255.93334139 Ry
     Harris-Foulkes estimate   =   -1255.93336163 Ry
     estimated scf accuracy    <       0.00022230 Ry

     iteration # 36     ecut=    60.00 Ry     beta=0.70
     Davidson diagonalization with overlap
     ethr =  1.54E-07,  avg # of iterations =  1.0

     total cpu time spent up to now is      978.0 secs

     total energy              =   -1255.93335785 Ry
     Harris-Foulkes estimate   =   -1255.93334356 Ry
     estimated scf accuracy    <       0.00019889 Ry

     iteration # 37     ecut=    60.00 Ry     beta=0.70
     Davidson diagonalization with overlap
     ethr =  1.38E-07,  avg # of iterations =  1.0

     total cpu time spent up to now is     1001.4 secs

     total energy              =   -1255.93352139 Ry
     Harris-Foulkes estimate   =   -1255.93335966 Ry
     estimated scf accuracy    <       0.00022034 Ry

     iteration # 38     ecut=    60.00 Ry     beta=0.70
     Davidson diagonalization with overlap
     ethr =  1.38E-07,  avg # of iterations =  5.0

     total cpu time spent up to now is     1035.6 secs

     total energy              =   -1255.93344955 Ry
     Harris-Foulkes estimate   =   -1255.93369128 Ry
     estimated scf accuracy    <       0.00183520 Ry

     iteration # 39     ecut=    60.00 Ry     beta=0.70
     Davidson diagonalization with overlap
     ethr =  1.38E-07,  avg # of iterations =  1.0

     total cpu time spent up to now is     1059.0 secs

     total energy              =   -1255.93380445 Ry
     Harris-Foulkes estimate   =   -1255.93345291 Ry
     estimated scf accuracy    <       0.00147352 Ry

     iteration # 40     ecut=    60.00 Ry     beta=0.70
     Davidson diagonalization with overlap
     ethr =  1.38E-07,  avg # of iterations =  1.0

     total cpu time spent up to now is     1082.4 secs

     total energy              =   -1255.93341031 Ry
     Harris-Foulkes estimate   =   -1255.93380694 Ry
     estimated scf accuracy    <       0.00191634 Ry

     iteration # 41     ecut=    60.00 Ry     beta=0.70
     Davidson diagonalization with overlap
     ethr =  1.38E-07,  avg # of iterations =  1.0

     total cpu time spent up to now is     1105.8 secs

     total energy              =   -1255.93272601 Ry
     Harris-Foulkes estimate   =   -1255.93341310 Ry
     estimated scf accuracy    <       0.00140477 Ry

     iteration # 42     ecut=    60.00 Ry     beta=0.70
     Davidson diagonalization with overlap
     ethr =  1.38E-07,  avg # of iterations =  5.0

     total cpu time spent up to now is     1142.2 secs

     total energy              =   -1255.93332572 Ry
     Harris-Foulkes estimate   =   -1255.93354830 Ry
     estimated scf accuracy    <       0.00120460 Ry

     iteration # 43     ecut=    60.00 Ry     beta=0.70
     Davidson diagonalization with overlap
     ethr =  1.38E-07,  avg # of iterations =  1.0

     total cpu time spent up to now is     1165.6 secs

     total energy              =   -1255.93336553 Ry
     Harris-Foulkes estimate   =   -1255.93332904 Ry
     estimated scf accuracy    <       0.00087488 Ry

     iteration # 44     ecut=    60.00 Ry     beta=0.70
     Davidson diagonalization with overlap
     ethr =  1.38E-07,  avg # of iterations =  1.0

     total cpu time spent up to now is     1189.0 secs

     total energy              =   -1255.93337065 Ry
     Harris-Foulkes estimate   =   -1255.93336722 Ry
     estimated scf accuracy    <       0.00092157 Ry

     iteration # 45     ecut=    60.00 Ry     beta=0.70
     Davidson diagonalization with overlap
     ethr =  1.38E-07,  avg # of iterations =  1.0

     total cpu time spent up to now is     1212.4 secs

     total energy              =   -1255.93323511 Ry
     Harris-Foulkes estimate   =   -1255.93337198 Ry
     estimated scf accuracy    <       0.00089788 Ry

     iteration # 46     ecut=    60.00 Ry     beta=0.70
     Davidson diagonalization with overlap
     ethr =  1.38E-07,  avg # of iterations =  6.0

     total cpu time spent up to now is     1241.3 secs

     total energy              =   -1255.93330985 Ry
     Harris-Foulkes estimate   =   -1255.93331893 Ry
     estimated scf accuracy    <       0.00010790 Ry

     iteration # 47     ecut=    60.00 Ry     beta=0.70
     Davidson diagonalization with overlap
     ethr =  7.49E-08,  avg # of iterations =  5.0

     total cpu time spent up to now is     1278.9 secs

     total energy              =   -1255.93246120 Ry
     Harris-Foulkes estimate   =   -1255.93426768 Ry
     estimated scf accuracy    <       0.00506184 Ry

     iteration # 48     ecut=    60.00 Ry     beta=0.70
     Davidson diagonalization with overlap
     ethr =  7.49E-08,  avg # of iterations =  5.0

     total cpu time spent up to now is     1316.4 secs

     total energy              =   -1255.93332466 Ry
     Harris-Foulkes estimate   =   -1255.93331691 Ry
     estimated scf accuracy    <       0.00002359 Ry

     iteration # 49     ecut=    60.00 Ry     beta=0.70
     Davidson diagonalization with overlap
     ethr =  1.64E-08,  avg # of iterations =  7.0

     total cpu time spent up to now is     1345.5 secs

     total energy              =   -1255.93330008 Ry
     Harris-Foulkes estimate   =   -1255.93333750 Ry
     estimated scf accuracy    <       0.00012951 Ry

     iteration # 50     ecut=    60.00 Ry     beta=0.70
     Davidson diagonalization with overlap
     ethr =  1.64E-08,  avg # of iterations = 10.5

     total cpu time spent up to now is     1375.3 secs

     total energy              =   -1255.93331173 Ry
     Harris-Foulkes estimate   =   -1255.93331265 Ry
     estimated scf accuracy    <       0.00000534 Ry

     iteration # 51     ecut=    60.00 Ry     beta=0.70
     Davidson diagonalization with overlap
     ethr =  3.71E-09,  avg # of iterations =  4.5

     total cpu time spent up to now is     1402.0 secs

     total energy              =   -1255.93331204 Ry
     Harris-Foulkes estimate   =   -1255.93331269 Ry
     estimated scf accuracy    <       0.00000190 Ry

     iteration # 52     ecut=    60.00 Ry     beta=0.70
     Davidson diagonalization with overlap
     ethr =  1.32E-09,  avg # of iterations =  6.0

     total cpu time spent up to now is     1432.4 secs

     total energy              =   -1255.93331302 Ry
     Harris-Foulkes estimate   =   -1255.93331308 Ry
     estimated scf accuracy    <       0.00000089 Ry

     iteration # 53     ecut=    60.00 Ry     beta=0.70
     Davidson diagonalization with overlap
     ethr =  6.16E-10,  avg # of iterations =  1.0

     total cpu time spent up to now is     1455.8 secs

     total energy              =   -1255.93331251 Ry
     Harris-Foulkes estimate   =   -1255.93331303 Ry
     estimated scf accuracy    <       0.00000081 Ry

     iteration # 54     ecut=    60.00 Ry     beta=0.70
     Davidson diagonalization with overlap
     ethr =  5.61E-10,  avg # of iterations =  6.0

     total cpu time spent up to now is     1487.1 secs

     total energy              =   -1255.93331261 Ry
     Harris-Foulkes estimate   =   -1255.93331340 Ry
     estimated scf accuracy    <       0.00000254 Ry

     iteration # 55     ecut=    60.00 Ry     beta=0.70
     Davidson diagonalization with overlap
     ethr =  5.61E-10,  avg # of iterations =  1.0

     total cpu time spent up to now is     1510.5 secs

     total energy              =   -1255.93331206 Ry
     Harris-Foulkes estimate   =   -1255.93331263 Ry
     estimated scf accuracy    <       0.00000139 Ry

     iteration # 56     ecut=    60.00 Ry     beta=0.70
     Davidson diagonalization with overlap
     ethr =  5.61E-10,  avg # of iterations =  5.5

     total cpu time spent up to now is     1544.6 secs

     total energy              =   -1255.93331314 Ry
     Harris-Foulkes estimate   =   -1255.93331342 Ry
     estimated scf accuracy    <       0.00000273 Ry

     iteration # 57     ecut=    60.00 Ry     beta=0.70
     Davidson diagonalization with overlap
     ethr =  5.61E-10,  avg # of iterations =  1.0

     total cpu time spent up to now is     1568.1 secs

     total energy              =   -1255.93331239 Ry
     Harris-Foulkes estimate   =   -1255.93331315 Ry
     estimated scf accuracy    <       0.00000231 Ry

     iteration # 58     ecut=    60.00 Ry     beta=0.70
     Davidson diagonalization with overlap
     ethr =  5.61E-10,  avg # of iterations =  7.0

     total cpu time spent up to now is     1597.7 secs

     total energy              =   -1255.93331291 Ry
     Harris-Foulkes estimate   =   -1255.93331295 Ry
     estimated scf accuracy    <       0.00000018 Ry

     iteration # 59     ecut=    60.00 Ry     beta=0.70
     Davidson diagonalization with overlap
     ethr =  1.28E-10,  avg # of iterations =  4.5

     total cpu time spent up to now is     1621.8 secs

     total energy              =   -1255.93331298 Ry
     Harris-Foulkes estimate   =   -1255.93331292 Ry
     estimated scf accuracy    <       0.00000013 Ry

     iteration # 60     ecut=    60.00 Ry     beta=0.70
     Davidson diagonalization with overlap
     ethr =  9.18E-11,  avg # of iterations =  5.0

     total cpu time spent up to now is     1655.8 secs

     total energy              =   -1255.93331299 Ry
     Harris-Foulkes estimate   =   -1255.93331313 Ry
     estimated scf accuracy    <       0.00000093 Ry

     iteration # 61     ecut=    60.00 Ry     beta=0.70
     Davidson diagonalization with overlap
     ethr =  9.18E-11,  avg # of iterations =  1.0

     total cpu time spent up to now is     1679.2 secs

     total energy              =   -1255.93331274 Ry
     Harris-Foulkes estimate   =   -1255.93331299 Ry
     estimated scf accuracy    <       0.00000074 Ry

     iteration # 62     ecut=    60.00 Ry     beta=0.70
     Davidson diagonalization with overlap
     ethr =  9.18E-11,  avg # of iterations =  5.5

     total cpu time spent up to now is     1713.9 secs

     total energy              =   -1255.93331294 Ry
     Harris-Foulkes estimate   =   -1255.93331298 Ry
     estimated scf accuracy    <       0.00000015 Ry

     iteration # 63     ecut=    60.00 Ry     beta=0.70
     Davidson diagonalization with overlap
     ethr =  9.18E-11,  avg # of iterations =  1.0

     total cpu time spent up to now is     1737.3 secs

     total energy              =   -1255.93331292 Ry
     Harris-Foulkes estimate   =   -1255.93331294 Ry
     estimated scf accuracy    <       0.00000009 Ry

     iteration # 64     ecut=    60.00 Ry     beta=0.70
     Davidson diagonalization with overlap
     ethr =  6.08E-11,  avg # of iterations =  6.0

     total cpu time spent up to now is     1767.7 secs

     total energy              =   -1255.93331298 Ry
     Harris-Foulkes estimate   =   -1255.93331296 Ry
     estimated scf accuracy    <       0.00000009 Ry

     iteration # 65     ecut=    60.00 Ry     beta=0.70
     Davidson diagonalization with overlap
     ethr =  6.08E-11,  avg # of iterations =  1.0

     total cpu time spent up to now is     1791.2 secs

     total energy              =   -1255.93331296 Ry
     Harris-Foulkes estimate   =   -1255.93331298 Ry
     estimated scf accuracy    <       0.00000013 Ry

     iteration # 66     ecut=    60.00 Ry     beta=0.70
     Davidson diagonalization with overlap
     ethr =  6.08E-11,  avg # of iterations =  1.0

     total cpu time spent up to now is     1814.6 secs

     total energy              =   -1255.93331293 Ry
     Harris-Foulkes estimate   =   -1255.93331296 Ry
     estimated scf accuracy    <       0.00000009 Ry

     iteration # 67     ecut=    60.00 Ry     beta=0.70
     Davidson diagonalization with overlap
     ethr =  6.08E-11,  avg # of iterations =  2.0

     total cpu time spent up to now is     1838.2 secs

     total energy              =   -1255.93331293 Ry
     Harris-Foulkes estimate   =   -1255.93331293 Ry
     estimated scf accuracy    <       0.00000004 Ry

     iteration # 68     ecut=    60.00 Ry     beta=0.70
     Davidson diagonalization with overlap
     ethr =  2.80E-11,  avg # of iterations =  1.0

     total cpu time spent up to now is     1861.6 secs

     total energy              =   -1255.93331292 Ry
     Harris-Foulkes estimate   =   -1255.93331293 Ry
     estimated scf accuracy    <       0.00000004 Ry

     iteration # 69     ecut=    60.00 Ry     beta=0.70
     Davidson diagonalization with overlap
     ethr =  2.60E-11,  avg # of iterations =  6.5

     total cpu time spent up to now is     1894.2 secs

     total energy              =   -1255.93331294 Ry
     Harris-Foulkes estimate   =   -1255.93331296 Ry
     estimated scf accuracy    <       0.00000009 Ry

     iteration # 70     ecut=    60.00 Ry     beta=0.70
     Davidson diagonalization with overlap
     ethr =  2.60E-11,  avg # of iterations =  1.0

     total cpu time spent up to now is     1917.6 secs

     total energy              =   -1255.93331293 Ry
     Harris-Foulkes estimate   =   -1255.93331294 Ry
     estimated scf accuracy    <       0.00000006 Ry

     iteration # 71     ecut=    60.00 Ry     beta=0.70
     Davidson diagonalization with overlap
     ethr =  2.60E-11,  avg # of iterations =  6.0

     total cpu time spent up to now is     1945.5 secs

     End of self-consistent calculation

          k = 0.0129 0.0209 0.0194 ( 27839 PWs)   bands (ev):

   -16.4505 -16.3785 -14.3221 -14.2819 -14.2537 -14.1981 -11.7985 -11.7172
   -11.6196 -11.5840 -11.4883 -11.4653 -11.2917 -11.2641  -9.1762  -9.1563
    -8.5350  -8.4343  -7.8549  -7.7795  -7.5536  -7.5419  -7.2118  -7.0615
    -6.8231  -6.7326  -5.6980  -5.4333  -4.8506  -4.6941  -4.3149  -4.2273
    -4.0418  -4.0162  -3.8741  -3.8216  -3.7886  -3.7506  -3.1672  -3.0922
    -3.0335  -2.9764  -2.8697  -2.7271  -2.6923  -2.4302  -2.1294  -2.0221
    -1.9974  -1.9273  -1.7753  -1.6788  -1.2339  -1.1332  -1.0701  -0.6294
    -0.3609  -0.2655  -0.2198  -0.1676   0.2930   0.3845   0.4385   0.4793
     0.6367   0.7286   0.8158   0.8559   0.9846   1.1161   1.2837   1.4851

          k = 0.0132 0.0209-0.0129 ( 27837 PWs)   bands (ev):

   -16.4505 -16.3784 -14.3305 -14.2709 -14.2425 -14.2120 -11.8000 -11.7181
   -11.6174 -11.5812 -11.4919 -11.4640 -11.3070 -11.2486  -9.1779  -9.1585
    -8.5140  -8.4522  -7.8534  -7.7669  -7.5711  -7.5381  -7.2084  -7.0653
    -6.8113  -6.7435  -5.6233  -5.5367  -4.8439  -4.6877  -4.3016  -4.2378
    -4.0380  -4.0163  -3.8530  -3.8346  -3.8025  -3.7472  -3.1928  -3.0878
    -3.0472  -2.9790  -2.8676  -2.6520  -2.6250  -2.4374  -2.1543  -2.1041
    -1.9991  -1.9193  -1.7353  -1.7034  -1.2063  -1.1507  -1.0784  -0.6123
    -0.3409  -0.2735  -0.2238  -0.1864   0.2976   0.3697   0.4239   0.4733
     0.6378   0.7052   0.8200   0.8587   0.9998   1.1106   1.2934   1.4826
 TIME (initial):        0.0
* Atoms contributing density to the main cell
  Number of atoms:   15778
 
 TIME (set up the environment):        0.1
 DOCALC: T F T T
 ESAVE:       0.000000000000       0.000000000000       0.000000000000
* XDM: using PAW all-electron density reconstruction? T
 TIME (promolecular grid):       22.0
 TIME (calculation of b grid):       22.6
 TIME (calculation of volumes and moments):      161.3
 
+ Volume and moments
# All results in atomic units.
# i              V                  Vfree                 M1                  M2                  M3
  1        93.5633965941       114.0071219785         7.3960215510       150.1341876661      3557.7368888830
  2        93.5633965941       114.0071219785         7.3960215510       150.1341876661      3557.7368888830
  3        93.6004874827       114.0071219785         7.5676303801       152.7565416312      3573.9557548792
  4        93.6004874827       114.0071219785         7.5676303801       152.7565416312      3573.9557548791
  5        33.7564400212        39.0349749523         3.7633747775        49.6533744971       943.9204582519
  6        33.7564400212        39.0349749523         3.7633747775        49.6533744971       943.9204582519
  7        32.1716024557        39.0349749523         4.0318973562        52.3845921589       957.2675943206
  8        32.1716024557        39.0349749523         4.0318973562        52.3845921589       957.2675943206
  9        32.8376985986        39.0349749523         4.0553198476        52.9574854796       964.7356715492
 10        32.8376985986        39.0349749523         4.0553198476        52.9574854796       964.7356715492
 11        33.8296402243        39.0349749523         3.7784843927        50.0001206527       948.2694044546
 12        33.8296402243        39.0349749523         3.7784843927        50.0001206527       948.2694044546
 13        32.6470140115        39.0349749523         4.0835867989        53.0574453230       960.2108458052
 14        32.6470140115        39.0349749523         4.0835867989        53.0574453230       960.2108458052
 15        32.0485508683        39.0349749523         4.0850790999        53.0780138414       959.9210965603
 16        32.0485508683        39.0349749523         4.0850790999        53.0780138414       959.9210965602
 17        32.2050532917        39.0349749523         4.0397028312        52.6398482248       960.2044486807
 18        32.2050532917        39.0349749523         4.0397028312        52.6398482248       960.2044486806
 19        32.8441910418        39.0349749523         4.0587046908        53.0257093968       966.5109833403
 20        32.8441910418        39.0349749523         4.0587046908        53.0257093968       966.5109833403
 21        33.8194862023        39.0349749523         3.7811554892        50.0438121200       948.8480637386
 22        33.8194862023        39.0349749523         3.7811554892        50.0438121200       948.8480637386
 23        33.7463719631        39.0349749523         3.7646655482        49.6112652343       942.4142137556
 24        33.7463719631        39.0349749523         3.7646655482        49.6112652343       942.4142137556
 25        32.5971928886        39.0349749523         4.0753926113        52.8601565567       957.1694751361
 26        32.5971928886        39.0349749523         4.0753926113        52.8601565567       957.1694751361
 27        32.0125246016        39.0349749523         4.0286139531        52.4793488905       956.4422935871
 28        32.0125246016        39.0349749523         4.0286139531        52.4793488905       956.4422935871
 29         7.8242156668        10.4882987305         1.5833973702        14.3073539529       274.7497428397
 30         7.8242156668        10.4882987305         1.5833973702        14.3073539529       274.7497428397
 31         7.4068664391        10.4882987305         1.5992866622        14.1270719193       270.9233240807
 32         7.4068664391        10.4882987305         1.5992866622        14.1270719193       270.9233240807
 33         7.4570032050        10.4882987305         1.5550868604        13.8922461372       271.8429689460
 34         7.4570032050        10.4882987305         1.5550868604        13.8922461372       271.8429689460
 35         7.9440261684        10.4882987305         1.5970410408        14.5188870747       279.0771017366
 36         7.9440261684        10.4882987305         1.5970410408        14.5188870747       279.0771017366
 37         7.7930707338        10.4882987305         1.5844742406        14.3081486828       274.4843578885
 38         7.7930707338        10.4882987305         1.5844742406        14.3081486828       274.4843578885
 39         7.2180382032        10.4882987305         1.5682902914        13.8194528155       270.0099140029
 40         7.2180382032        10.4882987305         1.5682902914        13.8194528155       270.0099140030
 41         7.4540858249        10.4882987305         1.5764479135        13.9615543370       270.5564039037
 42         7.4540858249        10.4882987305         1.5764479135        13.9615543370       270.5564039037
 43         7.9380686544        10.4882987305         1.5976724285        14.5006516445       277.9206161957
 44         7.9380686544        10.4882987305         1.5976724285        14.5006516445       277.9206161957
 45        21.9452384527        23.7788846669         4.4003820061        32.7211682129       332.1846807586
 46        21.9452384527        23.7788846669         4.4003820061        32.7211682129       332.1846807586
 
+ Dispersion coefficients
# All results in atomic units.
# i   j              C6                  C8                  C10                   Rc                  Rvdw
  1   1        88.2705934374      5375.4983334669    322611.1058884587         7.7753105926         7.7229748622
  2   1        88.2705934374      5375.4983334670    322611.1058884615         7.7753105926         7.7229748622
  2   2        88.2705934374      5375.4983334670    322611.1058884643         7.7753105926         7.7229748622
  3   1        89.3008104912      5422.9929393378    323944.4732901853         7.7607956370         7.7171035626
  3   2        89.3008104912      5422.9929393379    323944.4732901881         7.7607956370         7.7171035626
  3   3        90.3545279975      5471.5589389137    325311.2542203958         7.7462291673         7.7112114257
  4   1        89.3008104912      5422.9929393380    323944.4732901956         7.7607956370         7.7171035626
  4   2        89.3008104912      5422.9929393380    323944.4732901985         7.7607956370         7.7171035626
  4   3        90.3545279975      5471.5589389139    325311.2542204060         7.7462291673         7.7112114257
  4   4        90.3545279975      5471.5589389141    325311.2542204163         7.7462291673         7.7112114257
  5   1        41.1588750938      2067.8111732188    106542.7132568986         7.1329771374         7.4631509796
  5   2        41.1588750938      2067.8111732188    106542.7132568994         7.1329771374         7.4631509796
  5   3        41.6785313672      2086.8041119318    106894.4229658929         7.1164821678         7.4564787643
  5   4        41.6785313672      2086.8041119319    106894.4229658959         7.1164821678         7.4564787643
  5   5        19.3267791171       764.9834454915     33520.2815465862         6.4547674336         7.1888151544
  6   1        41.1588750938      2067.8111732188    106542.7132568966         7.1329771374         7.4631509796
  6   2        41.1588750938      2067.8111732188    106542.7132568974         7.1329771374         7.4631509796
  6   3        41.6785313672      2086.8041119318    106894.4229658909         7.1164821678         7.4564787643
  6   4        41.6785313672      2086.8041119318    106894.4229658938         7.1164821678         7.4564787643
  6   5        19.3267791171       764.9834454915     33520.2815465855         6.4547674336         7.1888151544
  6   6        19.3267791171       764.9834454915     33520.2815465849         6.4547674336         7.1888151544
  7   1        41.3168581307      2063.2724817135    105135.7757140672         7.1024714008         7.4508114091
  7   2        41.3168581307      2063.2724817135    105135.7757140681         7.1024714008         7.4508114091
  7   3        41.8657816172      2083.5380855988    105538.6850675613         7.0858334367         7.4440813526
  7   4        41.8657816172      2083.5380855989    105538.6850675641         7.0858334367         7.4440813526
  7   5        19.4957837242       765.7861103400     33073.6767338615         6.4189929755         7.1743443861
  7   6        19.4957837242       765.7861103400     33073.6767338609         6.4189929755         7.1743443861
  7   7        19.7336551600       769.1709778598     32731.8217494451         6.3827878422         7.1596994097
  8   1        41.3168581307      2063.2724817135    105135.7757140693         7.1024714008         7.4508114091
  8   2        41.3168581307      2063.2724817135    105135.7757140701         7.1024714008         7.4508114091
  8   3        41.8657816172      2083.5380855988    105538.6850675634         7.0858334367         7.4440813526
  8   4        41.8657816172      2083.5380855989    105538.6850675661         7.0858334367         7.4440813526
  8   5        19.4957837242       765.7861103400     33073.6767338622         6.4189929755         7.1743443861
  8   6        19.4957837242       765.7861103400     33073.6767338615         6.4189929755         7.1743443861
  8   7        19.7336551600       769.1709778599     32731.8217494457         6.3827878422         7.1596994097
  8   8        19.7336551600       769.1709778599     32731.8217494463         6.3827878422         7.1596994097
  9   1        41.9058770249      2096.8497944118    106910.6363636613         7.1070552261         7.4526655664
  9   2        41.9058770249      2096.8497944118    106910.6363636621         7.1070552261         7.4526655664
  9   3        42.4591700267      2117.2872770100    107312.8779346237         7.0904284510         7.4459400359
  9   4        42.4591700267      2117.2872770100    107312.8779346265         7.0904284510         7.4459400359
  9   5        19.7616579889       778.1927006271     33615.8304387329         6.4232911516         7.1760829983
  9   6        19.7616579889       778.1927006271     33615.8304387322         6.4232911516         7.1760829983
  9   7        19.9941817457       781.3119463635     33255.0150866628         6.3871107280         7.1614480170
  9   8        19.9941817457       781.3119463635     33255.0150866634         6.3871107280         7.1614480170
  9   9        20.2592423405       793.6823030481     33788.5165320013         6.3914440428         7.1632008428
 10   1        41.9058770249      2096.8497944118    106910.6363636632         7.1070552261         7.4526655664
 10   2        41.9058770249      2096.8497944118    106910.6363636640         7.1070552261         7.4526655664
 10   3        42.4591700267      2117.2872770100    107312.8779346256         7.0904284510         7.4459400359
 10   4        42.4591700267      2117.2872770101    107312.8779346284         7.0904284510         7.4459400359
 10   5        19.7616579889       778.1927006271     33615.8304387335         6.4232911516         7.1760829983
 10   6        19.7616579889       778.1927006271     33615.8304387328         6.4232911516         7.1760829983
 10   7        19.9941817457       781.3119463635     33255.0150866633         6.3871107280         7.1614480170
 10   8        19.9941817457       781.3119463635     33255.0150866640         6.3871107280         7.1614480170
 10   9        20.2592423405       793.6823030481     33788.5165320019         6.3914440428         7.1632008428
 10  10        20.2592423405       793.6823030482     33788.5165320025         6.3914440428         7.1632008428
 11   1        41.2829130713      2076.4583736147    107013.3097454326         7.1354639503         7.4641568954
 11   2        41.2829130713      2076.4583736148    107013.3097454334         7.1354639503         7.4641568954
 11   3        41.8045663704      2095.5606516191    107368.2945722605         7.1189740799         7.4574867428
 11   4        41.8045663704      2095.5606516191    107368.2945722635         7.1189740799         7.4574867428
 11   5        19.3865152231       768.4822444760     33671.5318448160         6.4570110171         7.1897226839
 11   6        19.3865152231       768.4822444760     33671.5318448154         6.4570110171         7.1897226839
 11   7        19.5570940555       769.3386877619     33225.1052898469         6.4212463020         7.1752558566
 11   8        19.5570940555       769.3386877619     33225.1052898475         6.4212463020         7.1752558566
 11   9        19.8236707306       781.7946269550     33769.5979510619         6.4255512180         7.1769971952
 11  10        19.8236707306       781.7946269550     33769.5979510625         6.4255512180         7.1769971952
 11  11        19.4464524370       771.9960177629     33823.5498274538         6.4592588775         7.1906319434
 12   1        41.2829130713      2076.4583736148    107013.3097454331         7.1354639503         7.4641568954
 12   2        41.2829130713      2076.4583736148    107013.3097454339         7.1354639503         7.4641568954
 12   3        41.8045663704      2095.5606516191    107368.2945722611         7.1189740799         7.4574867428
 12   4        41.8045663704      2095.5606516191    107368.2945722641         7.1189740799         7.4574867428
 12   5        19.3865152231       768.4822444760     33671.5318448162         6.4570110171         7.1897226839
 12   6        19.3865152231       768.4822444760     33671.5318448155         6.4570110171         7.1897226839
 12   7        19.5570940555       769.3386877619     33225.1052898470         6.4212463020         7.1752558566
 12   8        19.5570940555       769.3386877619     33225.1052898476         6.4212463020         7.1752558566
 12   9        19.8236707306       781.7946269550     33769.5979510621         6.4255512180         7.1769971952
 12  10        19.8236707306       781.7946269550     33769.5979510626         6.4255512180         7.1769971952
 12  11        19.4464524370       771.9960177629     33823.5498274539         6.4592588775         7.1906319434
 12  12        19.4464524370       771.9960177629     33823.5498274541         6.4592588775         7.1906319434
 13   1        41.8926573345      2092.0462546194    106410.6735239399         7.0992893258         7.4495242598
 13   2        41.8926573345      2092.0462546194    106410.6735239407         7.0992893258         7.4495242598
 13   3        42.4487773584      2112.5719818910    106815.5225683711         7.0826301570         7.4427856260
 13   4        42.4487773584      2112.5719818910    106815.5225683738         7.0826301570         7.4427856260
 13   5        19.7658976889       776.4053362912     33441.9433233442         6.4146152056         7.1725735781
 13   6        19.7658976889       776.4053362911     33441.9433233436         6.4146152056         7.1725735781
 13   7        20.0059362431       779.7932239173     33092.3820967155         6.3783405215         7.1579004684
 13   8        20.0059362431       779.7932239173     33092.3820967161         6.3783405215         7.1579004684
 13   9        20.2702013422       792.1074549756     33621.8323859898         6.3826744026         7.1596535233
 13  10        20.2702013422       792.1074549757     33621.8323859903         6.3826744026         7.1596535233
 13  11        19.8280399169       780.0064730931     33595.1582532578         6.4168744201         7.1734874304
 13  12        19.8280399169       780.0064730931     33595.1582532579         6.4168744201         7.1734874304
 13  13        20.2819931057       790.5628996556     33456.6920451039         6.3738861078         7.1560986581
 14   1        41.8926573345      2092.0462546194    106410.6735239408         7.0992893258         7.4495242598
 14   2        41.8926573345      2092.0462546195    106410.6735239416         7.0992893258         7.4495242598
 14   3        42.4487773584      2112.5719818910    106815.5225683720         7.0826301570         7.4427856260
 14   4        42.4487773584      2112.5719818910    106815.5225683747         7.0826301570         7.4427856260
 14   5        19.7658976889       776.4053362912     33441.9433233445         6.4146152056         7.1725735781
 14   6        19.7658976889       776.4053362912     33441.9433233438         6.4146152056         7.1725735781
 14   7        20.0059362431       779.7932239173     33092.3820967158         6.3783405215         7.1579004684
 14   8        20.0059362431       779.7932239173     33092.3820967164         6.3783405215         7.1579004684
 14   9        20.2702013422       792.1074549757     33621.8323859900         6.3826744026         7.1596535233
 14  10        20.2702013422       792.1074549757     33621.8323859906         6.3826744026         7.1596535233
 14  11        19.8280399169       780.0064730931     33595.1582532580         6.4168744201         7.1734874304
 14  12        19.8280399169       780.0064730931     33595.1582532582         6.4168744201         7.1734874304
 14  13        20.2819931057       790.5628996556     33456.6920451041         6.3738861078         7.1560986581
 14  14        20.2819931057       790.5628996556     33456.6920451044         6.3738861078         7.1560986581
 15   1        41.4577225287      2070.3443207228    105293.9216414740         7.0990866463         7.4494422759
 15   2        41.4577225287      2070.3443207228    105293.9216414748         7.0990866463         7.4494422759
 15   3        42.0124483834      2090.8751464591    105705.4217614706         7.0824260479         7.4427030639
 15   4        42.0124483834      2090.8751464591    105705.4217614733         7.0824260479         7.4427030639
 15   5        19.5759851330       768.9540394021     33114.8031655479         6.4143281848         7.1724574782
 15   6        19.5759851330       768.9540394021     33114.8031655473         6.4143281848         7.1724574782
 15   7        19.8246403263       772.7352393740     32786.5896644925         6.3780487596         7.1577824507
 15   8        19.8246403263       772.7352393740     32786.5896644931         6.3780487596         7.1577824507
 15   9        20.0851180072       784.8835703490     33308.8561213606         6.3823834479         7.1595358322
 15  10        20.0851180072       784.8835703490     33308.8561213612         6.3823834479         7.1595358322
 15  11        19.6377001401       772.5272844251     33266.8163280736         6.4165878363         7.1733715072
 15  12        19.6377001401       772.5272844251     33266.8163280738         6.4165878363         7.1733715072
 15  13        20.0980125225       783.4003040847     33147.2148790221         6.3735938964         7.1559804586
 15  14        20.0980125225       783.4003040847     33147.2148790224         6.3735938964         7.1559804586
 15  15        19.9174731828       776.3716868809     32843.5218782531         6.3733016571         7.1558622478
 16   1        41.4577225287      2070.3443207228    105293.9216414731         7.0990866463         7.4494422759
 16   2        41.4577225287      2070.3443207228    105293.9216414739         7.0990866463         7.4494422759
 16   3        42.0124483834      2090.8751464591    105705.4217614696         7.0824260479         7.4427030639
 16   4        42.0124483834      2090.8751464591    105705.4217614723         7.0824260479         7.4427030639
 16   5        19.5759851330       768.9540394021     33114.8031655475         6.4143281848         7.1724574782
 16   6        19.5759851330       768.9540394021     33114.8031655469         6.4143281848         7.1724574782
 16   7        19.8246403263       772.7352393739     32786.5896644921         6.3780487596         7.1577824507
 16   8        19.8246403263       772.7352393740     32786.5896644927         6.3780487596         7.1577824507
 16   9        20.0851180072       784.8835703490     33308.8561213602         6.3823834479         7.1595358322
 16  10        20.0851180072       784.8835703490     33308.8561213608         6.3823834479         7.1595358322
 16  11        19.6377001401       772.5272844251     33266.8163280733         6.4165878363         7.1733715072
 16  12        19.6377001401       772.5272844251     33266.8163280734         6.4165878363         7.1733715072
 16  13        20.0980125225       783.4003040847     33147.2148790217         6.3735938964         7.1559804586
 16  14        20.0980125225       783.4003040847     33147.2148790220         6.3735938964         7.1559804586
 16  15        19.9174731828       776.3716868809     32843.5218782527         6.3733016571         7.1558622478
 16  16        19.9174731828       776.3716868809     32843.5218782523         6.3733016571         7.1558622478
 17   1        41.3757057059      2068.5747522162    105442.0584238655         7.1051052187         7.4518767885
 17   2        41.3757057059      2068.5747522162    105442.0584238663         7.1051052187         7.4518767885
 17   3        41.9256185257      2088.9109604702    105847.3821050178         7.0884736759         7.4451493294
 17   4        41.9256185257      2088.9109604702    105847.3821050205         7.0884736759         7.4451493294
 17   5        19.5242760763       768.0205858802     33173.6899955960         6.4214612944         7.1753428211
 17   6        19.5242760763       768.0205858801     33173.6899955953         6.4214612944         7.1753428211
 17   7        19.7630118615       771.4441779362     32832.1880263851         6.3852703206         7.1607035722
 17   8        19.7630118615       771.4441779363     32832.1880263857         6.3852703206         7.1607035722
 17   9        20.0238601683       783.6155354210     33356.9442997330         6.3895992199         7.1624546119
 17  10        20.0238601683       783.6155354210     33356.9442997336         6.3895992199         7.1624546119
 17  11        19.5856840482       771.5821793338     33325.6382508995         6.4237185061         7.1762558632
 17  12        19.5856840482       771.5821793338     33325.6382508996         6.4237185061         7.1762558632
 17  13        20.0356893493       782.0974653272     33193.9843975380         6.3808293227         7.1589071885
 17  14        20.0356893493       782.0974653272     33193.9843975383         6.3808293227         7.1589071885
 17  15        19.8542076030       775.0218833158     32887.4021721537         6.3805380250         7.1587893586
 17  16        19.8542076030       775.0218833158     32887.4021721533         6.3805380250         7.1587893586
 17  17        19.7924161974       773.7225940888     32932.9076370455         6.3877562665         7.1617091373
 18   1        41.3757057059      2068.5747522162    105442.0584238651         7.1051052187         7.4518767885
 18   2        41.3757057059      2068.5747522162    105442.0584238659         7.1051052187         7.4518767885
 18   3        41.9256185257      2088.9109604702    105847.3821050174         7.0884736759         7.4451493294
 18   4        41.9256185257      2088.9109604702    105847.3821050201         7.0884736759         7.4451493294
 18   5        19.5242760763       768.0205858802     33173.6899955958         6.4214612944         7.1753428211
 18   6        19.5242760763       768.0205858801     33173.6899955951         6.4214612944         7.1753428211
 18   7        19.7630118615       771.4441779362     32832.1880263849         6.3852703206         7.1607035722
 18   8        19.7630118615       771.4441779363     32832.1880263855         6.3852703206         7.1607035722
 18   9        20.0238601683       783.6155354210     33356.9442997328         6.3895992199         7.1624546119
 18  10        20.0238601683       783.6155354210     33356.9442997334         6.3895992199         7.1624546119
 18  11        19.5856840482       771.5821793338     33325.6382508993         6.4237185061         7.1762558632
 18  12        19.5856840482       771.5821793338     33325.6382508995         6.4237185061         7.1762558632
 18  13        20.0356893493       782.0974653272     33193.9843975379         6.3808293227         7.1589071885
 18  14        20.0356893493       782.0974653272     33193.9843975382         6.3808293227         7.1589071885
 18  15        19.8542076030       775.0218833158     32887.4021721535         6.3805380250         7.1587893586
 18  16        19.8542076030       775.0218833158     32887.4021721532         6.3805380250         7.1587893586
 18  17        19.7924161974       773.7225940888     32932.9076370453         6.3877562665         7.1617091373
 18  18        19.7924161974       773.7225940888     32932.9076370451         6.3877562665         7.1617091373
 19   1        41.9257135986      2098.2145747195    107002.4410788739         7.1077396389         7.4529424114
 19   2        41.9257135986      2098.2145747196    107002.4410788746         7.1077396389         7.4529424114
 19   3        42.4794183774      2118.6741208651    107405.6757613338         7.0911156824         7.4462180210
 19   4        42.4794183774      2118.6741208652    107405.6757613366         7.0911156824         7.4462180210
 19   5        19.7715351035       778.7571817412     33648.5678972228         6.4240524560         7.1763909459
 19   6        19.7715351035       778.7571817412     33648.5678972221         6.4240524560         7.1763909459
 19   7        20.0045473240       781.8946014158     33288.2790418544         6.3878801978         7.1617592675
 19   8        20.0045473240       781.8946014159     33288.2790418551         6.3878801978         7.1617592675
 19   9        20.2696979100       794.2718673604     33822.2237309613         6.3922135035         7.1635120896
 19  10        20.2696979100       794.2718673604     33822.2237309619         6.3922135035         7.1635120896
 19  11        19.8335846354       782.3616877907     33802.4913813016         6.4263126208         7.1773051826
 19  12        19.8335846354       782.3616877907     33802.4913813017         6.4263126208         7.1773051826
 19  13        20.2807037859       792.6979149448     33655.4975322070         6.3834454628         7.1599654172
 19  14        20.2807037859       792.6979149448     33655.4975322072         6.3834454628         7.1599654172
 19  15        20.0955848899       785.4710017346     33342.3110289953         6.3831546188         7.1598477708
 19  16        20.0955848899       785.4710017346     33342.3110289949         6.3831546188         7.1598477708
 19  17        20.0342439859       784.1997600219     33390.3086037250         6.3903686859         7.1627658609
 19  18        20.0342439859       784.1997600219     33390.3086037248         6.3903686859         7.1627658609
 19  19        20.2801609304       794.8619093502     33855.9631364061         6.3929828271         7.1638232811
 20   1        41.9257135986      2098.2145747196    107002.4410788766         7.1077396389         7.4529424114
 20   2        41.9257135986      2098.2145747196    107002.4410788774         7.1077396389         7.4529424114
 20   3        42.4794183774      2118.6741208652    107405.6757613365         7.0911156824         7.4462180210
 20   4        42.4794183774      2118.6741208652    107405.6757613393         7.0911156824         7.4462180210
 20   5        19.7715351035       778.7571817412     33648.5678972236         6.4240524560         7.1763909459
 20   6        19.7715351035       778.7571817412     33648.5678972230         6.4240524560         7.1763909459
 20   7        20.0045473240       781.8946014159     33288.2790418552         6.3878801978         7.1617592675
 20   8        20.0045473240       781.8946014159     33288.2790418558         6.3878801978         7.1617592675
 20   9        20.2696979100       794.2718673604     33822.2237309621         6.3922135035         7.1635120896
 20  10        20.2696979100       794.2718673604     33822.2237309627         6.3922135035         7.1635120896
 20  11        19.8335846354       782.3616877907     33802.4913813024         6.4263126208         7.1773051826
 20  12        19.8335846354       782.3616877907     33802.4913813025         6.4263126208         7.1773051826
 20  13        20.2807037859       792.6979149448     33655.4975322077         6.3834454628         7.1599654172
 20  14        20.2807037859       792.6979149448     33655.4975322080         6.3834454628         7.1599654172
 20  15        20.0955848899       785.4710017346     33342.3110289961         6.3831546188         7.1598477708
 20  16        20.0955848899       785.4710017346     33342.3110289957         6.3831546188         7.1598477708
 20  17        20.0342439859       784.1997600219     33390.3086037258         6.3903686859         7.1627658609
 20  18        20.0342439859       784.1997600219     33390.3086037256         6.3903686859         7.1627658609
 20  19        20.2801609304       794.8619093502     33855.9631364069         6.3929828271         7.1638232811
 20  20        20.2801609304       794.8619093502     33855.9631364077         6.3929828271         7.1638232811
 21   1        41.2895414561      2076.9284626669    107036.2586030424         7.1355595017         7.4641955459
 21   2        41.2895414561      2076.9284626669    107036.2586030432         7.1355595017         7.4641955459
 21   3        41.8115142618      2096.0473533444    107391.9347087052         7.1190696242         7.4575253905
 21   4        41.8115142618      2096.0473533445    107391.9347087082         7.1190696242         7.4575253905
 21   5        19.3904442611       768.7021855772     33679.7870604686         6.4570762553         7.1897490727
 21   6        19.3904442611       768.7021855772     33679.7870604679         6.4570762553         7.1897490727
 21   7        19.5616331862       769.5820090983     33234.2239018396         6.4213111317         7.1752820803
 21   8        19.5616331862       769.5820090983     33234.2239018402         6.4213111317         7.1752820803
 21   9        19.8281985718       782.0388364779     33778.7496565695         6.4256165803         7.1770236342
 21  10        19.8281985718       782.0388364780     33778.7496565701         6.4256165803         7.1770236342
 21  11        19.4504026346       772.2172272672     33831.8629857539         6.4593244387         7.1906584629
 21  12        19.4504026346       772.2172272672     33831.8629857541         6.4593244387         7.1906584629
 21  13        19.8326323263       780.2527896306     33604.3660280350         6.4169394849         7.1735137491
 21  14        19.8326323263       780.2527896306     33604.3660280352         6.4169394849         7.1735137491
 21  15        19.6423413999       772.7748947024     33276.0918533863         6.4166529196         7.1733978334
 21  16        19.6423413999       772.7748947024     33276.0918533859         6.4166529196         7.1733978334
 21  17        19.5902342126       771.8262893244     33334.7966527005         6.4237836427         7.1762822110
 21  18        19.5902342126       771.8262893244     33334.7966527003         6.4237836427         7.1762822110
 21  19        19.8381179121       782.6061847597     33811.6578123819         6.4263780106         7.1773316328
 21  20        19.8381179121       782.6061847597     33811.6578123827         6.4263780106         7.1773316328
 21  21        19.4543585653       772.4386905584     33840.1871004344         6.4593900214         7.1906849911
 22   1        41.2895414561      2076.9284626669    107036.2586030430         7.1355595017         7.4641955459
 22   2        41.2895414561      2076.9284626669    107036.2586030437         7.1355595017         7.4641955459
 22   3        41.8115142618      2096.0473533444    107391.9347087057         7.1190696242         7.4575253905
 22   4        41.8115142618      2096.0473533445    107391.9347087088         7.1190696242         7.4575253905
 22   5        19.3904442611       768.7021855772     33679.7870604688         6.4570762553         7.1897490727
 22   6        19.3904442611       768.7021855772     33679.7870604681         6.4570762553         7.1897490727
 22   7        19.5616331862       769.5820090983     33234.2239018397         6.4213111317         7.1752820803
 22   8        19.5616331862       769.5820090983     33234.2239018404         6.4213111317         7.1752820803
 22   9        19.8281985718       782.0388364779     33778.7496565697         6.4256165803         7.1770236342
 22  10        19.8281985718       782.0388364780     33778.7496565703         6.4256165803         7.1770236342
 22  11        19.4504026346       772.2172272672     33831.8629857541         6.4593244387         7.1906584629
 22  12        19.4504026346       772.2172272672     33831.8629857542         6.4593244387         7.1906584629
 22  13        19.8326323263       780.2527896306     33604.3660280351         6.4169394849         7.1735137491
 22  14        19.8326323263       780.2527896306     33604.3660280354         6.4169394849         7.1735137491
 22  15        19.6423413999       772.7748947024     33276.0918533864         6.4166529196         7.1733978334
 22  16        19.6423413999       772.7748947024     33276.0918533860         6.4166529196         7.1733978334
 22  17        19.5902342126       771.8262893244     33334.7966527006         6.4237836427         7.1762822110
 22  18        19.5902342126       771.8262893244     33334.7966527005         6.4237836427         7.1762822110
 22  19        19.8381179121       782.6061847597     33811.6578123820         6.4263780106         7.1773316328
 22  20        19.8381179121       782.6061847597     33811.6578123829         6.4263780106         7.1773316328
 22  21        19.4543585653       772.4386905584     33840.1871004346         6.4593900214         7.1906849911
 22  22        19.4543585653       772.4386905584     33840.1871004348         6.4593900214         7.1906849911
 23   1        41.1586876511      2066.8319075555    106447.0894829375         7.1313845649         7.4625067840
 23   2        41.1586876511      2066.8319075556    106447.0894829382         7.1313845649         7.4625067840
 23   3        41.6784912415      2085.8200058142    106798.2928919042         7.1148836677         7.4558321711
 23   4        41.6784912415      2085.8200058143    106798.2928919072         7.1148836677         7.4558321711
 23   5        19.3272093382       764.5450548535     33485.4134741056         6.4530557925         7.1881227955
 23   6        19.3272093382       764.5450548535     33485.4134741049         6.4530557925         7.1881227955
 23   7        19.4965829898       765.3580946470     33039.3652433992         6.4172648255         7.1736453494
 23   8        19.4965829898       765.3580946470     33039.3652433998         6.4172648255         7.1736453494
 23   9        19.7624217217       777.7571009623     33580.8895055130         6.4215622713         7.1753836662
 23  10        19.7624217217       777.7571009623     33580.8895055136         6.4215622713         7.1753836662
 23  11        19.3869524947       768.0427507261     33636.5170904283         6.4552987160         7.1890300581
 23  12        19.3869524947       768.0427507261     33636.5170904284         6.4552987160         7.1890300581
 23  13        19.7667019313       775.9711514728     33407.1420469233         6.4128833984         7.1718730621
 23  14        19.7667019313       775.9711514728     33407.1420469236         6.4128833984         7.1718730621
 23  15        19.5768406293       768.5263420340     33080.4353178354         6.4125961201         7.1717568581
 23  16        19.5768406293       768.5263420340     33080.4353178350         6.4125961201         7.1717568581
 23  17        19.5250793013       767.5921001150     33139.2861569225         6.4197327206         7.1746436130
 23  18        19.5250793013       767.5921001150     33139.2861569223         6.4197327206         7.1746436130
 23  19        19.7723012306       778.3214503662     33613.6058163401         6.4223238236         7.1756917141
 23  20        19.7723012306       778.3214503663     33613.6058163409         6.4223238236         7.1756917141
 23  21        19.3908847512       768.2627282066     33644.7678488082         6.4553638664         7.1890564115
 23  22        19.3908847512       768.2627282066     33644.7678488084         6.4553638664         7.1890564115
 23  23        19.3276415557       764.1067228630     33450.5673033959         6.4513437560         7.1874302768
 24   1        41.1586876511      2066.8319075555    106447.0894829382         7.1313845649         7.4625067840
 24   2        41.1586876511      2066.8319075556    106447.0894829390         7.1313845649         7.4625067840
 24   3        41.6784912415      2085.8200058142    106798.2928919050         7.1148836677         7.4558321711
 24   4        41.6784912415      2085.8200058143    106798.2928919080         7.1148836677         7.4558321711
 24   5        19.3272093382       764.5450548535     33485.4134741058         6.4530557925         7.1881227955
 24   6        19.3272093382       764.5450548535     33485.4134741051         6.4530557925         7.1881227955
 24   7        19.4965829898       765.3580946470     33039.3652433994         6.4172648255         7.1736453494
 24   8        19.4965829898       765.3580946470     33039.3652434000         6.4172648255         7.1736453494
 24   9        19.7624217217       777.7571009623     33580.8895055132         6.4215622713         7.1753836662
 24  10        19.7624217217       777.7571009623     33580.8895055138         6.4215622713         7.1753836662
 24  11        19.3869524947       768.0427507261     33636.5170904285         6.4552987160         7.1890300581
 24  12        19.3869524947       768.0427507261     33636.5170904286         6.4552987160         7.1890300581
 24  13        19.7667019313       775.9711514728     33407.1420469235         6.4128833984         7.1718730621
 24  14        19.7667019313       775.9711514728     33407.1420469238         6.4128833984         7.1718730621
 24  15        19.5768406293       768.5263420340     33080.4353178355         6.4125961201         7.1717568581
 24  16        19.5768406293       768.5263420340     33080.4353178352         6.4125961201         7.1717568581
 24  17        19.5250793013       767.5921001150     33139.2861569227         6.4197327206         7.1746436130
 24  18        19.5250793013       767.5921001150     33139.2861569225         6.4197327206         7.1746436130
 24  19        19.7723012306       778.3214503663     33613.6058163403         6.4223238236         7.1756917141
 24  20        19.7723012306       778.3214503663     33613.6058163411         6.4223238236         7.1756917141
 24  21        19.3908847512       768.2627282066     33644.7678488084         6.4553638664         7.1890564115
 24  22        19.3908847512       768.2627282066     33644.7678488086         6.4553638664         7.1890564115
 24  23        19.3276415557       764.1067228630     33450.5673033961         6.4513437560         7.1874302768
 24  24        19.3276415557       764.1067228630     33450.5673033963         6.4513437560         7.1874302768
 25   1        41.8200721231      2087.0234927624    106123.9675399236         7.0975809823         7.4488332348
 25   2        41.8200721231      2087.0234927624    106123.9675399244         7.0975809823         7.4488332348
 25   3        42.3751157162      2107.4894845947    106526.9242709350         7.0809169354         7.4420926279
 25   4        42.3751157162      2107.4894845947    106526.9242709378         7.0809169354         7.4420926279
 25   5        19.7312563256       774.3850353755     33348.1738388228         6.4129415907         7.1718966009
 25   6        19.7312563256       774.3850353755     33348.1738388222         6.4129415907         7.1718966009
 25   7        19.9705932626       777.7480346645     32998.7103531465         6.3766549477         7.1572186538
 25   8        19.9705932626       777.7480346645     32998.7103531471         6.3766549477         7.1572186538
 25   9        20.2344273039       790.0330904664     33526.6940877628         6.3809858702         7.1589705120
 25  10        20.2344273039       790.0330904664     33526.6940877634         6.3809858702         7.1589705120
 25  11        19.7932852734       777.9776154131     33500.9300415013         6.4151988303         7.1728096543
 25  12        19.7932852734       777.9776154131     33500.9300415015         6.4151988303         7.1728096543
 25  13        20.2461671406       788.4896557670     33361.8980093354         6.3721964473         7.1554151904
 25  14        20.2461671406       788.4896557670     33361.8980093357         6.3721964473         7.1554151904
 25  15        20.0624659854       781.3440773637     33053.2157150600         6.3719039396         7.1552968711
 25  16        20.0624659854       781.3440773637     33053.2157150596         6.3719039396         7.1552968710
 25  17        20.0002916523       780.0471284916     33100.0059395202         6.3791420420         7.1582246835
 25  18        20.0002916523       780.0471284916     33100.0059395200         6.3791420420         7.1582246835
 25  19        20.2449096612       790.6220973208     33560.2674840680         6.3817570159         7.1592824404
 25  20        20.2449096612       790.6220973208     33560.2674840688         6.3817570159         7.1592824404
 25  21        19.7978672416       778.2232529508     33510.1053533392         6.4152637271         7.1728359051
 25  22        19.7978672416       778.2232529508     33510.1053533394         6.4152637271         7.1728359051
[...]
  Evdw   =  -1.550327347401E-01 Hartree,  -3.100654694802E-01 Ry
  Evdw6 =  -7.330997144045E-02 Hartree,  -1.466199428809E-01 Ry
  Evdw8 =  -4.588829321593E-02 Hartree,  -9.177658643185E-02 Ry
  Evdw10 =  -3.583447008373E-02 Hartree,  -7.166894016746E-02 Ry
  Evdw9  =   0.000000000000E+00 Hartree,   0.000000000000E+00 Ry
  Fvdw (01) =   2.581641121499E-05  -6.386058175560E-04  -1.640525497593E-04  Hartree/bohr
            =   5.163282242998E-05  -1.277211635112E-03  -3.281050995187E-04  Ry/bohr
  Fvdw (02) =   2.581641121499E-05   6.386058175560E-04  -1.640525497593E-04  Hartree/bohr
            =   5.163282242999E-05   1.277211635112E-03  -3.281050995187E-04  Ry/bohr
  Fvdw (03) =   1.803289735171E-04   5.398303078374E-04  -7.025068108834E-04  Hartree/bohr
            =   3.606579470342E-04   1.079660615675E-03  -1.405013621767E-03  Ry/bohr
  Fvdw (04) =   1.803289735171E-04  -5.398303078374E-04  -7.025068108834E-04  Hartree/bohr
            =   3.606579470342E-04  -1.079660615675E-03  -1.405013621767E-03  Ry/bohr
  Fvdw (05) =   2.423982162013E-04  -5.211088596711E-05   1.952094996029E-04  Hartree/bohr
            =   4.847964324026E-04  -1.042217719342E-04   3.904189992058E-04  Ry/bohr
  Fvdw (06) =   2.423982162013E-04   5.211088596711E-05   1.952094996029E-04  Hartree/bohr
            =   4.847964324026E-04   1.042217719342E-04   3.904189992058E-04  Ry/bohr
  Fvdw (07) =  -1.596009437510E-04   1.890119099214E-04   3.421683897088E-05  Hartree/bohr
            =  -3.192018875021E-04   3.780238198428E-04   6.843367794175E-05  Ry/bohr
  Fvdw (08) =  -1.596009437510E-04  -1.890119099214E-04   3.421683897088E-05  Hartree/bohr
            =  -3.192018875021E-04  -3.780238198428E-04   6.843367794175E-05  Ry/bohr
  Fvdw (09) =  -3.245889633824E-04   1.581690700491E-04  -1.839685156662E-04  Hartree/bohr
            =  -6.491779267647E-04   3.163381400982E-04  -3.679370313325E-04  Ry/bohr
  Fvdw (10) =  -3.245889633824E-04  -1.581690700491E-04  -1.839685156662E-04  Hartree/bohr
            =  -6.491779267647E-04  -3.163381400982E-04  -3.679370313325E-04  Ry/bohr
  Fvdw (11) =  -1.591718758415E-04   1.776319877791E-04  -9.064421582120E-05  Hartree/bohr
            =  -3.183437516830E-04   3.552639755582E-04  -1.812884316424E-04  Ry/bohr
  Fvdw (12) =  -1.591718758415E-04  -1.776319877791E-04  -9.064421582120E-05  Hartree/bohr
            =  -3.183437516830E-04  -3.552639755582E-04  -1.812884316424E-04  Ry/bohr
  Fvdw (13) =   4.333973921873E-04  -1.389731476107E-04   2.383847885636E-04  Hartree/bohr
            =   8.667947843747E-04  -2.779462952213E-04   4.767695771272E-04  Ry/bohr
  Fvdw (14) =   4.333973921873E-04   1.389731476107E-04   2.383847885636E-04  Hartree/bohr
            =   8.667947843747E-04   2.779462952214E-04   4.767695771272E-04  Ry/bohr
  Fvdw (15) =   1.004456718306E-04   6.321731829083E-05   2.612063586007E-04  Hartree/bohr
            =   2.008913436612E-04   1.264346365817E-04   5.224127172013E-04  Ry/bohr
  Fvdw (16) =   1.004456718306E-04  -6.321731829083E-05   2.612063586006E-04  Hartree/bohr
            =   2.008913436613E-04  -1.264346365817E-04   5.224127172013E-04  Ry/bohr
  Fvdw (17) =   1.053476834307E-04   2.231612506857E-04   1.480507751572E-04  Hartree/bohr
            =   2.106953668614E-04   4.463225013714E-04   2.961015503145E-04  Ry/bohr
  Fvdw (18) =   1.053476834307E-04  -2.231612506857E-04   1.480507751572E-04  Hartree/bohr
            =   2.106953668614E-04  -4.463225013714E-04   2.961015503145E-04  Ry/bohr
  Fvdw (19) =   3.658079651358E-04   2.316414014893E-04  -1.706813858515E-05  Hartree/bohr
            =   7.316159302717E-04   4.632828029786E-04  -3.413627717029E-05  Ry/bohr
  Fvdw (20) =   3.658079651358E-04  -2.316414014893E-04  -1.706813858515E-05  Hartree/bohr
            =   7.316159302717E-04  -4.632828029786E-04  -3.413627717030E-05  Ry/bohr
  Fvdw (21) =   2.006159000431E-04   1.849700968333E-04   1.435453686168E-06  Hartree/bohr
            =   4.012318000863E-04   3.699401936666E-04   2.870907372337E-06  Ry/bohr
  Fvdw (22) =   2.006159000431E-04  -1.849700968333E-04   1.435453686165E-06  Hartree/bohr
            =   4.012318000863E-04  -3.699401936666E-04   2.870907372330E-06  Ry/bohr
  Fvdw (23) =  -2.897061199047E-04  -3.872916485898E-05   6.298056850783E-05  Hartree/bohr
            =  -5.794122398094E-04  -7.745832971796E-05   1.259611370157E-04  Ry/bohr
  Fvdw (24) =  -2.897061199047E-04   3.872916485898E-05   6.298056850783E-05  Hartree/bohr
            =  -5.794122398094E-04   7.745832971796E-05   1.259611370157E-04  Ry/bohr
  Fvdw (25) =  -4.823030917889E-04  -1.098659791548E-04  -1.841974709840E-06  Hartree/bohr
            =  -9.646061835778E-04  -2.197319583096E-04  -3.683949419680E-06  Ry/bohr
  Fvdw (26) =  -4.823030917889E-04   1.098659791548E-04  -1.841974709837E-06  Hartree/bohr
            =  -9.646061835778E-04   2.197319583096E-04  -3.683949419674E-06  Ry/bohr
  Fvdw (27) =  -2.099287124394E-04   7.337505979277E-05   8.998867650227E-05  Hartree/bohr
            =  -4.198574248787E-04   1.467501195855E-04   1.799773530045E-04  Ry/bohr
  Fvdw (28) =  -2.099287124393E-04  -7.337505979277E-05   8.998867650227E-05  Hartree/bohr
            =  -4.198574248787E-04  -1.467501195855E-04   1.799773530045E-04  Ry/bohr
  Fvdw (29) =   1.177888832875E-04  -5.260808627824E-05   8.794290483341E-05  Hartree/bohr
            =   2.355777665750E-04  -1.052161725565E-04   1.758858096668E-04  Ry/bohr
  Fvdw (30) =   1.177888832875E-04   5.260808627825E-05   8.794290483342E-05  Hartree/bohr
            =   2.355777665750E-04   1.052161725565E-04   1.758858096668E-04  Ry/bohr
  Fvdw (31) =   5.592083353006E-06   3.065454876735E-05   4.214446086726E-05  Hartree/bohr
            =   1.118416670601E-05   6.130909753469E-05   8.428892173452E-05  Ry/bohr
  Fvdw (32) =   5.592083353006E-06  -3.065454876734E-05   4.214446086726E-05  Hartree/bohr
            =   1.118416670601E-05  -6.130909753469E-05   8.428892173452E-05  Ry/bohr
  Fvdw (33) =   3.136782525750E-05   8.848910258163E-06   6.699954402533E-05  Hartree/bohr
            =   6.273565051499E-05   1.769782051633E-05   1.339990880507E-04  Ry/bohr
  Fvdw (34) =   3.136782525750E-05  -8.848910258164E-06   6.699954402533E-05  Hartree/bohr
            =   6.273565051499E-05  -1.769782051633E-05   1.339990880507E-04  Ry/bohr
  Fvdw (35) =   1.102648228603E-04   1.167341908726E-06   7.345755209094E-06  Hartree/bohr
            =   2.205296457206E-04   2.334683817452E-06   1.469151041819E-05  Ry/bohr
  Fvdw (36) =   1.102648228603E-04  -1.167341908726E-06   7.345755209093E-06  Hartree/bohr
            =   2.205296457206E-04  -2.334683817453E-06   1.469151041819E-05  Ry/bohr
  Fvdw (37) =  -1.477880243297E-04  -5.196068602936E-05   3.509139830545E-05  Hartree/bohr
            =  -2.955760486593E-04  -1.039213720587E-04   7.018279661090E-05  Ry/bohr
  Fvdw (38) =  -1.477880243297E-04   5.196068602936E-05   3.509139830545E-05  Hartree/bohr
            =  -2.955760486593E-04   1.039213720587E-04   7.018279661090E-05  Ry/bohr
  Fvdw (39) =  -1.333777299749E-05   2.059698358607E-05   3.575184137088E-05  Hartree/bohr
            =  -2.667554599497E-05   4.119396717214E-05   7.150368274176E-05  Ry/bohr
  Fvdw (40) =  -1.333777299749E-05  -2.059698358607E-05   3.575184137088E-05  Hartree/bohr
            =  -2.667554599497E-05  -4.119396717214E-05   7.150368274176E-05  Ry/bohr
  Fvdw (41) =  -4.157664987855E-05   1.945121646653E-05   2.292363775919E-05  Hartree/bohr
            =  -8.315329975711E-05   3.890243293306E-05   4.584727551839E-05  Ry/bohr
  Fvdw (42) =  -4.157664987855E-05  -1.945121646653E-05   2.292363775920E-05  Hartree/bohr
            =  -8.315329975711E-05  -3.890243293306E-05   4.584727551839E-05  Ry/bohr
  Fvdw (43) =  -1.243696603523E-04  -1.381766781895E-05  -4.803908807734E-05  Hartree/bohr
            =  -2.487393207046E-04  -2.763533563789E-05  -9.607817615469E-05  Ry/bohr
  Fvdw (44) =  -1.243696603523E-04   1.381766781895E-05  -4.803908807734E-05  Hartree/bohr
            =  -2.487393207046E-04   2.763533563789E-05  -9.607817615469E-05  Ry/bohr
  Fvdw (45) =   3.319998634650E-05  -4.926605498183E-06  -1.215512084596E-04  Hartree/bohr
            =   6.639997269300E-05  -9.853210996366E-06  -2.431024169192E-04  Ry/bohr
  Fvdw (46) =   3.319998634650E-05   4.926605498184E-06  -1.215512084596E-04  Hartree/bohr
            =   6.639997269301E-05   9.853210996368E-06  -2.431024169192E-04  Ry/bohr
  sigma_vdw (Hy/bohr**3) =  -4.560200254719E-05  -2.674434107662E-21   1.251711512038E-06  
                            -2.674434107662E-21  -4.463073505577E-05  -2.396583223932E-21  
                             1.251711512038E-06  -2.396583223932E-21  -4.924089293474E-05  
  sigma_vdw (Ry/bohr**3) =  -9.120400509438E-05  -5.348868215324E-21   2.503423024077E-06  
                            -5.348868215324E-21  -8.926147011155E-05  -4.793166447863E-21  
                             2.503423024077E-06  -4.793166447863E-21  -9.848178586948E-05  
  sigma_vdw (GPa) =  -1.341657009612E+00  -7.868455477537E-17   3.682661791882E-02  
                     -7.868455477537E-17  -1.313081338254E+00  -7.050990092330E-17  
                      3.682661791882E-02  -7.050990092330E-17  -1.448716843018E+00  
 
 TIME (final):      323.7

!    total energy              =   -1256.24337841 Ry
     Harris-Foulkes estimate   =   -1256.24337841 Ry
     estimated scf accuracy    <          7.8E-10 Ry

     total all-electron energy =    -20244.145647 Ry

     The total energy is the sum of the following terms:

     one-electron contribution =    -293.33561227 Ry
     hartree contribution      =     204.57934813 Ry
     xc contribution           =    -162.77335397 Ry
     ewald contribution        =    -185.45935890 Ry
     Dispersion XDM Correction =      -0.31006547 Ry
     Uncorrected (XDM) energy  =   -1255.93331294 Ry
     one-center paw contrib.   =    -818.94433593 Ry

     convergence has been achieved in 120 iterations

     Forces acting on atoms (Ry/au):

     atom    1 type  4   force =     0.00003015   -0.00018776   -0.00072319
     atom    2 type  4   force =     0.00003015    0.00018776   -0.00072319
     atom    3 type  4   force =     0.00012495    0.00052985   -0.00005886
     atom    4 type  4   force =     0.00012495   -0.00052985   -0.00005886
     atom    5 type  1   force =     0.00043408   -0.00006051    0.00024215
     atom    6 type  1   force =     0.00043408    0.00006051    0.00024215
     atom    7 type  1   force =    -0.00003570    0.00017232    0.00014603
     atom    8 type  1   force =    -0.00003570   -0.00017232    0.00014603
     atom    9 type  1   force =    -0.00024726   -0.00009674   -0.00023165
     atom   10 type  1   force =    -0.00024726    0.00009674   -0.00023165
     atom   11 type  1   force =     0.00000693   -0.00037103   -0.00025093
     atom   12 type  1   force =     0.00000693    0.00037103   -0.00025093
     atom   13 type  1   force =     0.00007616   -0.00007500   -0.00023155
     atom   14 type  1   force =     0.00007616    0.00007500   -0.00023155
     atom   15 type  1   force =     0.00021660    0.00004740    0.00021707
     atom   16 type  1   force =     0.00021660   -0.00004740    0.00021707
     atom   17 type  1   force =    -0.00034978   -0.00002222    0.00008399
     atom   18 type  1   force =    -0.00034978    0.00002222    0.00008399
     atom   19 type  1   force =     0.00032771    0.00039702    0.00019401
     atom   20 type  1   force =     0.00032771   -0.00039702    0.00019401
     atom   21 type  1   force =     0.00027108   -0.00000907    0.00007644
     atom   22 type  1   force =     0.00027108    0.00000907    0.00007644
     atom   23 type  1   force =    -0.00057722   -0.00033057    0.00004848
     atom   24 type  1   force =    -0.00057722    0.00033057    0.00004848
     atom   25 type  1   force =    -0.00006551    0.00015206    0.00022107
     atom   26 type  1   force =    -0.00006551   -0.00015206    0.00022107
     atom   27 type  1   force =    -0.00018870    0.00039645    0.00008412
     atom   28 type  1   force =    -0.00018870   -0.00039645    0.00008412
     atom   29 type  2   force =    -0.00054470    0.00010594    0.00006658
     atom   30 type  2   force =    -0.00054470   -0.00010594    0.00006658
     atom   31 type  2   force =    -0.00011673    0.00010602   -0.00024011
     atom   32 type  2   force =    -0.00011673   -0.00010602   -0.00024011
     atom   33 type  2   force =    -0.00023297   -0.00014734   -0.00020826
     atom   34 type  2   force =    -0.00023297    0.00014734   -0.00020826
     atom   35 type  2   force =    -0.00063920   -0.00005179    0.00010849
     atom   36 type  2   force =    -0.00063920    0.00005179    0.00010849
     atom   37 type  2   force =     0.00055277    0.00046056    0.00052459
     atom   38 type  2   force =     0.00055277   -0.00046056    0.00052459
     atom   39 type  2   force =     0.00003944   -0.00034238   -0.00023516
     atom   40 type  2   force =     0.00003944    0.00034238   -0.00023516
     atom   41 type  2   force =     0.00040246    0.00019515   -0.00028655
     atom   42 type  2   force =     0.00040246   -0.00019515   -0.00028655
     atom   43 type  2   force =     0.00042387    0.00001969    0.00074849
     atom   44 type  2   force =     0.00042387   -0.00001969    0.00074849
     atom   45 type  3   force =     0.00009157    0.00033484   -0.00029523
     atom   46 type  3   force =     0.00009157   -0.00033484   -0.00029523

     Total force =     0.003469     Total SCF correction =     0.000050

     Total XDM Dispersion Force =     0.004763

     XDM Dispersion forces acting on atoms:
     atom    1 type  4   force =     0.00005163   -0.00127721   -0.00032811
     atom    2 type  4   force =     0.00005163    0.00127721   -0.00032811
     atom    3 type  4   force =     0.00036066    0.00107966   -0.00140501
     atom    4 type  4   force =     0.00036066   -0.00107966   -0.00140501
     atom    5 type  1   force =     0.00048480   -0.00010422    0.00039042
     atom    6 type  1   force =     0.00048480    0.00010422    0.00039042
     atom    7 type  1   force =    -0.00031920    0.00037802    0.00006843
     atom    8 type  1   force =    -0.00031920   -0.00037802    0.00006843
     atom    9 type  1   force =    -0.00064918    0.00031634   -0.00036794
     atom   10 type  1   force =    -0.00064918   -0.00031634   -0.00036794
     atom   11 type  1   force =    -0.00031834    0.00035526   -0.00018129
     atom   12 type  1   force =    -0.00031834   -0.00035526   -0.00018129
     atom   13 type  1   force =     0.00086679   -0.00027795    0.00047677
     atom   14 type  1   force =     0.00086679    0.00027795    0.00047677
     atom   15 type  1   force =     0.00020089    0.00012643    0.00052241
     atom   16 type  1   force =     0.00020089   -0.00012643    0.00052241
     atom   17 type  1   force =     0.00021070    0.00044632    0.00029610
     atom   18 type  1   force =     0.00021070   -0.00044632    0.00029610
     atom   19 type  1   force =     0.00073162    0.00046328   -0.00003414
     atom   20 type  1   force =     0.00073162   -0.00046328   -0.00003414
     atom   21 type  1   force =     0.00040123    0.00036994    0.00000287
     atom   22 type  1   force =     0.00040123   -0.00036994    0.00000287
     atom   23 type  1   force =    -0.00057941   -0.00007746    0.00012596
     atom   24 type  1   force =    -0.00057941    0.00007746    0.00012596
     atom   25 type  1   force =    -0.00096461   -0.00021973   -0.00000368
     atom   26 type  1   force =    -0.00096461    0.00021973   -0.00000368
     atom   27 type  1   force =    -0.00041986    0.00014675    0.00017998
     atom   28 type  1   force =    -0.00041986   -0.00014675    0.00017998
     atom   29 type  2   force =     0.00023558   -0.00010522    0.00017589
     atom   30 type  2   force =     0.00023558    0.00010522    0.00017589
     atom   31 type  2   force =     0.00001118    0.00006131    0.00008429
     atom   32 type  2   force =     0.00001118   -0.00006131    0.00008429
     atom   33 type  2   force =     0.00006274    0.00001770    0.00013400
     atom   34 type  2   force =     0.00006274   -0.00001770    0.00013400
     atom   35 type  2   force =     0.00022053    0.00000233    0.00001469
     atom   36 type  2   force =     0.00022053   -0.00000233    0.00001469
     atom   37 type  2   force =    -0.00029558   -0.00010392    0.00007018
     atom   38 type  2   force =    -0.00029558    0.00010392    0.00007018
     atom   39 type  2   force =    -0.00002668    0.00004119    0.00007150
     atom   40 type  2   force =    -0.00002668   -0.00004119    0.00007150
     atom   41 type  2   force =    -0.00008315    0.00003890    0.00004585
     atom   42 type  2   force =    -0.00008315   -0.00003890    0.00004585
     atom   43 type  2   force =    -0.00024874   -0.00002764   -0.00009608
     atom   44 type  2   force =    -0.00024874    0.00002764   -0.00009608
     atom   45 type  3   force =     0.00006640   -0.00000985   -0.00024310
     atom   46 type  3   force =     0.00006640    0.00000985   -0.00024310


     entering subroutine stress ...

          total   stress  (Ry/bohr**3)                   (kbar)     P=   -0.11
  -0.00000182   0.00000000  -0.00000014         -0.27      0.00     -0.02
   0.00000000  -0.00000094   0.00000000          0.00     -0.14      0.00
  -0.00000014   0.00000000   0.00000058         -0.02      0.00      0.09


     Writing output data file epxars_2.save
 
     init_run     :     52.52s CPU     52.68s WALL (       2 calls)
     electrons    :   5511.19s CPU   5532.90s WALL (       2 calls)
     forces       :     40.01s CPU     40.05s WALL (       2 calls)
     stress       :     81.20s CPU     81.24s WALL (       2 calls)

     Called by init_run:
     wfcinit      :     15.72s CPU     15.81s WALL (       2 calls)
     potinit      :     15.06s CPU     15.09s WALL (       2 calls)

     Called by electrons:
     c_bands      :   2392.99s CPU   2409.92s WALL (     191 calls)
     sum_band     :   1858.30s CPU   1861.80s WALL (     191 calls)
     v_of_rho     :    186.58s CPU    186.71s WALL (     193 calls)
     newd         :    508.42s CPU    508.55s WALL (     193 calls)
     mix_rho      :    119.99s CPU    120.05s WALL (     191 calls)

     Called by c_bands:
     init_us_2    :     13.21s CPU     13.24s WALL (     776 calls)
     cegterg      :   2360.20s CPU   2373.07s WALL (     382 calls)

     Called by *egterg:
     h_psi        :   1980.50s CPU   1981.67s WALL (    1804 calls)
     s_psi        :    111.71s CPU    111.73s WALL (    1804 calls)
     g_psi        :      5.95s CPU      5.98s WALL (    1418 calls)
     cdiaghg      :     30.40s CPU     30.42s WALL (    1800 calls)

     Called by h_psi:
     add_vuspsi   :    112.22s CPU    112.23s WALL (    1804 calls)

     General routines
     calbec       :    162.16s CPU    162.23s WALL (    2194 calls)
     fft          :    178.30s CPU    178.39s WALL (    5647 calls)
     ffts         :     10.51s CPU     10.50s WALL (     768 calls)
     fftw         :   2745.24s CPU   2747.00s WALL (  264164 calls)
     interpolate  :     38.65s CPU     38.67s WALL (     768 calls)
     davcio       :      0.02s CPU      6.23s WALL (    1158 calls)
 
     Parallel routines
     fft_scatter  :    264.48s CPU    265.35s WALL (  270579 calls)
 
     PAW routines
     PAW_pot      :     98.81s CPU     98.84s WALL (     193 calls)
     PAW_ddot     :     74.54s CPU     74.55s WALL (    8027 calls)
     PAW_symme    :      0.02s CPU      0.02s WALL (     384 calls)
 
     PWSCF        :     1h34m CPU        1h35m WALL

 
   This run was terminated on:  21:31:10  15Oct2012            

=------------------------------------------------------------------------------=
   JOB DONE.
=------------------------------------------------------------------------------=
