
     Program PWSCF v.4.3.2      starts on 19Oct2012 at  1:35:44 

     This program is part of the open-source Quantum ESPRESSO suite
     for quantum simulation of materials; please cite
         "P. Giannozzi et al., J. Phys.:Condens. Matter 21 395502 (2009);
          URL http://www.quantum-espresso.org", 
     in publications or presentations arising from this work. More details at
     http://www.quantum-espresso.org/wiki/index.php/Citing_Quantum-ESPRESSO

     Parallel version (MPI), running on    12 processors
     R & G space division:  proc/pool =   12

     Current dimensions of program PWSCF are:
     Max number of different atomic species (ntypx) = 10
     Max number of k-points (npk) =  40000
     Max angular momentum in pseudopotentials (lmaxx) =  3
     Waiting for input...
     Reading input from stdin
               file c.UPF: wavefunction(s)  2P renormalized
               file sb.UPF: wavefunction(s)  5S 5P renormalized
               file s.UPF: wavefunction(s)  3P renormalized
               file f.UPF: wavefunction(s)  2S 2P renormalized

     Subspace diagonalization in iterative solution of the eigenvalue problem:
     a serial algorithm will be used

 
     Parallelization info
     --------------------
     sticks:   dense  smooth     PW     G-vecs:    dense   smooth      PW
     Min         685     456    119                47640    25922    3467
     Max         686     457    120                47643    25954    3468
     Sum        8229    5479   1433               571701   311271   41611
 

     Title: 
     epxars_2                                                                   


     bravais-lattice index     =            0
     lattice parameter (alat)  =       1.0000  a.u.
     unit-cell volume          =    4956.7013 (a.u.)^3
     number of atoms/cell      =           46
     number of atomic types    =            4
     number of electrons       =       240.00
     number of Kohn-Sham states=          120
     kinetic-energy cutoff     =      60.0000  Ry
     charge density cutoff     =     360.0000  Ry
     convergence threshold     =      1.0E-08
     mixing beta               =       0.7000
     number of iterations used =            8  plain     mixing
     Exchange-correlation      =  NOX  PW   PW86 PBC ( 0 417 4 0)
     EXX-fraction              =        0.00
     nstep                     =           50


     celldm(1)=   1.000000  celldm(2)=   0.000000  celldm(3)=   0.000000
     celldm(4)=   0.000000  celldm(5)=   0.000000  celldm(6)=   0.000000

     crystal axes: (cart. coord. in units of alat)
               a(1) = (  19.775956   0.000000  -0.072463 )  
               a(2) = (   0.000000  14.530536   0.000000 )  
               a(3) = (  -4.138376   0.000000  17.264550 )  

     reciprocal axes: (cart. coord. in units 2 pi/alat)
               b(1) = (  0.050611  0.000000  0.012132 )  
               b(2) = (  0.000000  0.068821  0.000000 )  
               b(3) = (  0.000212  0.000000  0.057973 )  


     PseudoPot. # 1 for  C read from file:
     ./c.UPF
     MD5 check sum: 59d3a4af416b94ce846c69cefa103580
     Pseudo is Projector augmented-wave + core cor, Zval =  4.0
     Generated using "atomic" code by A. Dal Corso  (Quantum ESPRESSO distribution)
     Shape of augmentation charge: BESSEL
     Using radial grid of 1073 points,  4 beta functions with: 
                l(1) =   0
                l(2) =   0
                l(3) =   1
                l(4) =   1
     Q(r) pseudized with 0 coefficients 


     PseudoPot. # 2 for Sb read from file:
     ./sb.UPF
     MD5 check sum: eafba98ab4c7605221bb994336090a42
     Pseudo is Projector augmented-wave + core cor, Zval =  5.0
     Generated using "atomic" code by A. Dal Corso  (Quantum ESPRESSO distribution)
     Shape of augmentation charge: PSQ
     Using radial grid of 1243 points,  4 beta functions with: 
                l(1) =   0
                l(2) =   0
                l(3) =   1
                l(4) =   1
     Q(r) pseudized with 0 coefficients 


     PseudoPot. # 3 for  S read from file:
     ./s.UPF
     MD5 check sum: f30e8e98a43cb1acb672e04b450f70db
     Pseudo is Projector augmented-wave + core cor, Zval =  6.0
     Generated using "atomic" code by A. Dal Corso  (Quantum ESPRESSO distribution)
     Shape of augmentation charge: PSQ
     Using radial grid of 1151 points,  4 beta functions with: 
                l(1) =   0
                l(2) =   0
                l(3) =   1
                l(4) =   1
     Q(r) pseudized with 0 coefficients 


     PseudoPot. # 4 for  F read from file:
     ./f.UPF
     MD5 check sum: 8cc698429acbef515959d6d1ea0e1135
     Pseudo is Projector augmented-wave + core cor, Zval =  7.0
     Generated using "atomic" code by A. Dal Corso  (Quantum ESPRESSO distribution)
     Shape of augmentation charge: PSQ
     Using radial grid of 1105 points,  4 beta functions with: 
                l(1) =   0
                l(2) =   0
                l(3) =   1
                l(4) =   1
     Q(r) pseudized with 0 coefficients 


     atomic species   valence    mass     pseudopotential
        c              4.00    12.01070      C( 1.00)
        sb             5.00   121.76000     Sb( 1.00)
        s              6.00    32.06500      S( 1.00)
        f              7.00    18.99840      F( 1.00)

      2 Sym.Ops. (no inversion)


   Cartesian axes

     site n.     atom                  positions (alat units)
         1           sb  tau(   1) = (  -1.8928943  15.4829444   8.2204072  )
         2           sb  tau(   2) = (  -3.9620824  -0.9524086  16.8526821  )
         3           sb  tau(   3) = (  18.0752728   7.6019819   6.6194606  )
         4           sb  tau(   4) = (  16.0060847   6.9285539  15.2517355  )
         5           c   tau(   5) = (  14.5855126   3.3840644   9.0632369  )
         6           c   tau(   6) = (  16.6547007  11.1464714   0.4309620  )
         7           c   tau(   7) = (   3.4240234   6.9052657  13.3796065  )
         8           c   tau(   8) = (   5.4932115   7.6252701   4.7473317  )
         9           c   tau(   9) = (   2.1160292   7.7342981  11.2415897  )
        10           c   tau(  10) = (   4.1852173   6.7962377   2.6093149  )
        11           c   tau(  11) = (   0.6144047   6.1125904   9.8461503  )
        12           c   tau(  12) = (   2.6835928   8.4179454   1.2138755  )
        13           c   tau(  13) = (  12.4744299   2.4494162  10.2924985  )
        14           c   tau(  14) = (  14.5436180  12.0811196   1.6602237  )
        15           c   tau(  15) = (  10.4644966   4.0191112  10.9706485  )
        16           c   tau(  16) = (  12.5336847  10.5114246   2.3383737  )
        17           c   tau(  17) = (  10.5805465   6.5853566  10.4049772  )
        18           c   tau(  18) = (  12.6497346   7.9451792   1.7727024  )
        19           c   tau(  19) = (  12.6676441   7.5099519   9.0768618  )
        20           c   tau(  20) = (  14.7368322   7.0205838   0.4445870  )
        21           c   tau(  21) = (  14.6767612   5.9584618   8.4470259  )
        22           c   tau(  22) = (  12.6075731   8.5720740  17.0793007  )
        23           c   tau(  23) = (   0.4726571   3.5556270  10.5200424  )
        24           c   tau(  24) = (   2.5418452  10.9749087   1.8877675  )
        25           c   tau(  25) = (   1.8123548   2.7212623  12.6025746  )
        26           c   tau(  26) = (   3.8815429  11.8092734   3.9702997  )
        27           c   tau(  27) = (   3.2890416   4.3621045  14.0546798  )
        28           c   tau(  28) = (   5.3582297  10.1684313   5.4224050  )
        29           f   tau(  29) = (  12.2743981  14.4943563  10.9327175  )
        30           f   tau(  30) = (  14.3435862   0.0361795   2.3004426  )
        31           f   tau(  31) = (   8.4110177   3.0629902  12.1406626  )
        32           f   tau(  32) = (  10.4802058  11.4675455   3.5083877  )
        33           f   tau(  33) = (   8.6839819   8.1226481  11.1243459  )
        34           f   tau(  34) = (  10.7531700   6.4078877   2.4920710  )
        35           f   tau(  35) = (  12.6591834   9.9963490   8.4060087  )
        36           f   tau(  36) = (  10.5899953   4.5341868  17.0382836  )
        37           f   tau(  37) = (   1.7344238  14.7823826  13.3404239  )
        38           f   tau(  38) = (   3.8036119  -0.2518468   4.7081491  )
        39           f   tau(  39) = (   4.6021293   3.4894635  16.0474303  )
        40           f   tau(  40) = (   6.6713174  11.0410723   7.4151555  )
        41           f   tau(  41) = (   4.8144598   8.5322543  14.7697479  )
        42           f   tau(  42) = (   6.8836479   5.9982815   6.1374731  )
        43           f   tau(  43) = (   2.3691541  10.2065848  10.5616957  )
        44           f   tau(  44) = (   4.4383422   4.3239510   1.9294209  )
        45           s   tau(  45) = (  -1.0454295   3.5773722   4.4648379  )
        46           s   tau(  46) = (  -3.1146176  10.9531635  13.0971128  )

     number of k points=     2
                       cart. coord. in units 2pi/alat
        k(    1) = (   0.0127058   0.0172051   0.0175262), wk =   1.0000000
        k(    2) = (   0.0125996   0.0172051  -0.0114604), wk =   1.0000000

     Dense  grid:   571701 G-vectors     FFT dimensions: ( 120,  90, 108)

     Smooth grid:   311271 G-vectors     FFT dimensions: ( 100,  72,  90)

     Largest allocated arrays     est. size (Mb)     dimensions
        Kohn-Sham Wavefunctions         5.96 Mb     (   3255,  120)
        NL pseudopotentials            18.28 Mb     (   3255,  368)
        Each V/rho on FFT grid          1.48 Mb     (  97200)
        Each G-vector array             0.36 Mb     (  47643)
        G-vector shells                 0.36 Mb     (  47643)
     Largest temporary arrays     est. size (Mb)     dimensions
        Auxiliary wavefunctions        23.84 Mb     (   3255,  480)
        Each subspace H/S matrix        3.52 Mb     ( 480, 480)
        Each <psi_i|beta_j> matrix      0.67 Mb     (    368,  120)
        Arrays for rho mixing          11.87 Mb     (  97200,   8)

     Check: negative/imaginary core charge=   -0.000031    0.000000

     Initial potential from superposition of free atoms

     starting charge  239.99651, renormalised to  240.00000
     Starting wfc are  184 atomic wfcs
     Checking if some PAW data can be deallocated... 

     total cpu time spent up to now is       19.5 secs

     per-process dynamical memory:    92.2 Mb

     Self-consistent Calculation

     iteration #  1     ecut=    60.00 Ry     beta=0.70
     Davidson diagonalization with overlap
     ethr =  1.00E-02,  avg # of iterations =  4.0

     total cpu time spent up to now is       35.6 secs

     total energy              =   -2925.77769248 Ry
     Harris-Foulkes estimate   =   -2929.13499719 Ry
     estimated scf accuracy    <    1633.73579565 Ry

     iteration #  2     ecut=    60.00 Ry     beta=0.70
     Davidson diagonalization with overlap
     ethr =  1.00E-02,  avg # of iterations =  1.0

     total cpu time spent up to now is       46.7 secs

     total energy              =   -2926.21210002 Ry
     Harris-Foulkes estimate   =   -2926.39230578 Ry
     estimated scf accuracy    <     158.95392953 Ry

     iteration #  3     ecut=    60.00 Ry     beta=0.70
     Davidson diagonalization with overlap
     ethr =  1.00E-02,  avg # of iterations =  4.0

     total cpu time spent up to now is       74.8 secs

     total energy              =   -2929.40555812 Ry
     Harris-Foulkes estimate   =   -2929.59296594 Ry
     estimated scf accuracy    <      10.45190201 Ry

     iteration #  4     ecut=    60.00 Ry     beta=0.70
     Davidson diagonalization with overlap
     ethr =  4.35E-03,  avg # of iterations =  1.0

     negative rho (up, down):  0.187E-07 0.000E+00

     total cpu time spent up to now is       89.8 secs

     total energy              =   -2928.73580815 Ry
     Harris-Foulkes estimate   =   -2929.51647033 Ry
     estimated scf accuracy    <      10.21278240 Ry

     iteration #  5     ecut=    60.00 Ry     beta=0.70
     Davidson diagonalization with overlap
     ethr =  4.26E-03,  avg # of iterations =  1.0

     negative rho (up, down):  0.782E-01 0.000E+00

     total cpu time spent up to now is      102.2 secs

     total energy              =   -2924.16664689 Ry
     Harris-Foulkes estimate   =   -2928.82443808 Ry
     estimated scf accuracy    <       8.86842177 Ry

     iteration #  6     ecut=    60.00 Ry     beta=0.70
     Davidson diagonalization with overlap
     ethr =  3.70E-03,  avg # of iterations =  5.0

     negative rho (up, down):  0.433E-01 0.000E+00

     total cpu time spent up to now is      123.1 secs

     total energy              =   -2931.87415687 Ry
     Harris-Foulkes estimate   =   -2934.47674928 Ry
     estimated scf accuracy    <      34.06771100 Ry

     iteration #  7     ecut=    60.00 Ry     beta=0.70
     Davidson diagonalization with overlap
     ethr =  3.70E-03,  avg # of iterations =  1.0

     total cpu time spent up to now is      136.1 secs

     total energy              =   -2919.57463883 Ry
     Harris-Foulkes estimate   =   -2931.94072367 Ry
     estimated scf accuracy    <      28.64910960 Ry

     iteration #  8     ecut=    60.00 Ry     beta=0.70
     Davidson diagonalization with overlap
     ethr =  3.70E-03,  avg # of iterations =  5.0

     total cpu time spent up to now is      155.9 secs

     total energy              =   -2927.44552861 Ry
     Harris-Foulkes estimate   =   -2929.22433158 Ry
     estimated scf accuracy    <       9.12381702 Ry

     iteration #  9     ecut=    60.00 Ry     beta=0.70
     Davidson diagonalization with overlap
     ethr =  3.70E-03,  avg # of iterations =  1.0

     negative rho (up, down):  0.590E-03 0.000E+00

     total cpu time spent up to now is      167.8 secs

     total energy              =   -2925.17384008 Ry
     Harris-Foulkes estimate   =   -2927.49391345 Ry
     estimated scf accuracy    <       6.19705959 Ry

     iteration # 10     ecut=    60.00 Ry     beta=0.70
     Davidson diagonalization with overlap
     ethr =  2.58E-03,  avg # of iterations =  5.0

     negative rho (up, down):  0.656E-03 0.000E+00

     total cpu time spent up to now is      201.8 secs

     total energy              =   -2928.69519018 Ry
     Harris-Foulkes estimate   =   -2928.48307137 Ry
     estimated scf accuracy    <       4.44594562 Ry

     iteration # 11     ecut=    60.00 Ry     beta=0.70
     Davidson diagonalization with overlap
     ethr =  1.85E-03,  avg # of iterations =  1.0

     negative rho (up, down):  0.205E-03 0.000E+00

     total cpu time spent up to now is      220.8 secs

     total energy              =   -2928.34820510 Ry
     Harris-Foulkes estimate   =   -2928.70578276 Ry
     estimated scf accuracy    <       4.84552606 Ry

     iteration # 12     ecut=    60.00 Ry     beta=0.70
     Davidson diagonalization with overlap
     ethr =  1.85E-03,  avg # of iterations =  1.0

     total cpu time spent up to now is      239.1 secs

     total energy              =   -2926.61437737 Ry
     Harris-Foulkes estimate   =   -2928.35436578 Ry
     estimated scf accuracy    <       4.30474354 Ry

     iteration # 13     ecut=    60.00 Ry     beta=0.70
     Davidson diagonalization with overlap
     ethr =  1.79E-03,  avg # of iterations =  7.0

     total cpu time spent up to now is      254.0 secs

     total energy              =   -2927.69009201 Ry
     Harris-Foulkes estimate   =   -2927.70294000 Ry
     estimated scf accuracy    <       0.66294692 Ry

     iteration # 14     ecut=    60.00 Ry     beta=0.70
     Davidson diagonalization with overlap
     ethr =  2.76E-04,  avg # of iterations =  6.0

     total cpu time spent up to now is      271.7 secs

     total energy              =   -2927.72298278 Ry
     Harris-Foulkes estimate   =   -2927.79840709 Ry
     estimated scf accuracy    <       0.90243084 Ry

     iteration # 15     ecut=    60.00 Ry     beta=0.70
     Davidson diagonalization with overlap
     ethr =  2.76E-04,  avg # of iterations =  2.0

     total cpu time spent up to now is      290.8 secs

     total energy              =   -2927.58383113 Ry
     Harris-Foulkes estimate   =   -2927.73727571 Ry
     estimated scf accuracy    <       0.75004372 Ry

     iteration # 16     ecut=    60.00 Ry     beta=0.70
     Davidson diagonalization with overlap
     ethr =  2.76E-04,  avg # of iterations =  5.0

     total cpu time spent up to now is      304.8 secs

     total energy              =   -2927.65573766 Ry
     Harris-Foulkes estimate   =   -2927.65269422 Ry
     estimated scf accuracy    <       0.12293757 Ry

     iteration # 17     ecut=    60.00 Ry     beta=0.70
     Davidson diagonalization with overlap
     ethr =  5.12E-05,  avg # of iterations =  5.0

     total cpu time spent up to now is      324.3 secs

     total energy              =   -2927.61743696 Ry
     Harris-Foulkes estimate   =   -2927.71982684 Ry
     estimated scf accuracy    <       0.35572255 Ry

     iteration # 18     ecut=    60.00 Ry     beta=0.70
     Davidson diagonalization with overlap
     ethr =  5.12E-05,  avg # of iterations = 10.0

     total cpu time spent up to now is      340.1 secs

     total energy              =   -2927.64806026 Ry
     Harris-Foulkes estimate   =   -2927.65177055 Ry
     estimated scf accuracy    <       0.02220191 Ry

     iteration # 19     ecut=    60.00 Ry     beta=0.70
     Davidson diagonalization with overlap
     ethr =  9.25E-06,  avg # of iterations =  4.0

     total cpu time spent up to now is      357.5 secs

     total energy              =   -2927.65927646 Ry
     Harris-Foulkes estimate   =   -2927.65940452 Ry
     estimated scf accuracy    <       0.00248711 Ry

     iteration # 20     ecut=    60.00 Ry     beta=0.70
     Davidson diagonalization with overlap
     ethr =  1.04E-06,  avg # of iterations =  6.0

     total cpu time spent up to now is      372.1 secs

     total energy              =   -2927.65858719 Ry
     Harris-Foulkes estimate   =   -2927.65991799 Ry
     estimated scf accuracy    <       0.00492198 Ry

     iteration # 21     ecut=    60.00 Ry     beta=0.70
     Davidson diagonalization with overlap
     ethr =  1.04E-06,  avg # of iterations =  8.0

     total cpu time spent up to now is      385.1 secs

     total energy              =   -2927.65792495 Ry
     Harris-Foulkes estimate   =   -2927.65869527 Ry
     estimated scf accuracy    <       0.00227053 Ry

     iteration # 22     ecut=    60.00 Ry     beta=0.70
     Davidson diagonalization with overlap
     ethr =  9.46E-07,  avg # of iterations =  6.0

     total cpu time spent up to now is      401.9 secs

     total energy              =   -2927.65899204 Ry
     Harris-Foulkes estimate   =   -2927.65937192 Ry
     estimated scf accuracy    <       0.00181183 Ry

     iteration # 23     ecut=    60.00 Ry     beta=0.70
     Davidson diagonalization with overlap
     ethr =  7.55E-07,  avg # of iterations =  1.0

     total cpu time spent up to now is      413.4 secs

     total energy              =   -2927.65858054 Ry
     Harris-Foulkes estimate   =   -2927.65900818 Ry
     estimated scf accuracy    <       0.00115757 Ry

     iteration # 24     ecut=    60.00 Ry     beta=0.70
     Davidson diagonalization with overlap
     ethr =  4.82E-07,  avg # of iterations =  6.0

     total cpu time spent up to now is      447.4 secs

     total energy              =   -2927.65904702 Ry
     Harris-Foulkes estimate   =   -2927.65917127 Ry
     estimated scf accuracy    <       0.00063482 Ry

     iteration # 25     ecut=    60.00 Ry     beta=0.70
     Davidson diagonalization with overlap
     ethr =  2.65E-07,  avg # of iterations =  1.0

     total cpu time spent up to now is      462.2 secs

     total energy              =   -2927.65889595 Ry
     Harris-Foulkes estimate   =   -2927.65905572 Ry
     estimated scf accuracy    <       0.00043425 Ry

     iteration # 26     ecut=    60.00 Ry     beta=0.70
     Davidson diagonalization with overlap
     ethr =  1.81E-07,  avg # of iterations =  6.0

     total cpu time spent up to now is      477.4 secs

     total energy              =   -2927.65907137 Ry
     Harris-Foulkes estimate   =   -2927.65908896 Ry
     estimated scf accuracy    <       0.00015164 Ry

     iteration # 27     ecut=    60.00 Ry     beta=0.70
     Davidson diagonalization with overlap
     ethr =  6.32E-08,  avg # of iterations =  1.0

     total cpu time spent up to now is      489.5 secs

     total energy              =   -2927.65905758 Ry
     Harris-Foulkes estimate   =   -2927.65907395 Ry
     estimated scf accuracy    <       0.00012341 Ry

     iteration # 28     ecut=    60.00 Ry     beta=0.70
     Davidson diagonalization with overlap
     ethr =  5.14E-08,  avg # of iterations =  5.0

     total cpu time spent up to now is      503.4 secs

     total energy              =   -2927.65905500 Ry
     Harris-Foulkes estimate   =   -2927.65906285 Ry
     estimated scf accuracy    <       0.00006037 Ry

     iteration # 29     ecut=    60.00 Ry     beta=0.70
     Davidson diagonalization with overlap
     ethr =  2.52E-08,  avg # of iterations =  6.5

     total cpu time spent up to now is      517.1 secs

     total energy              =   -2927.65906092 Ry
     Harris-Foulkes estimate   =   -2927.65906240 Ry
     estimated scf accuracy    <       0.00001533 Ry

     iteration # 30     ecut=    60.00 Ry     beta=0.70
     Davidson diagonalization with overlap
     ethr =  6.39E-09,  avg # of iterations =  6.0

     total cpu time spent up to now is      532.9 secs

     total energy              =   -2927.65906649 Ry
     Harris-Foulkes estimate   =   -2927.65906632 Ry
     estimated scf accuracy    <       0.00000166 Ry

     iteration # 31     ecut=    60.00 Ry     beta=0.70
     Davidson diagonalization with overlap
     ethr =  6.90E-10,  avg # of iterations =  4.5

     total cpu time spent up to now is      559.1 secs

     total energy              =   -2927.65906659 Ry
     Harris-Foulkes estimate   =   -2927.65906667 Ry
     estimated scf accuracy    <       0.00000182 Ry

     iteration # 32     ecut=    60.00 Ry     beta=0.70
     Davidson diagonalization with overlap
     ethr =  6.90E-10,  avg # of iterations =  5.0

     total cpu time spent up to now is      573.1 secs

     total energy              =   -2927.65906652 Ry
     Harris-Foulkes estimate   =   -2927.65906684 Ry
     estimated scf accuracy    <       0.00000301 Ry

     iteration # 33     ecut=    60.00 Ry     beta=0.70
     Davidson diagonalization with overlap
     ethr =  6.90E-10,  avg # of iterations =  1.0

     total cpu time spent up to now is      591.2 secs

     total energy              =   -2927.65906589 Ry
     Harris-Foulkes estimate   =   -2927.65906655 Ry
     estimated scf accuracy    <       0.00000244 Ry

     iteration # 34     ecut=    60.00 Ry     beta=0.70
     Davidson diagonalization with overlap
     ethr =  6.90E-10,  avg # of iterations =  6.5

     total cpu time spent up to now is      605.8 secs

     total energy              =   -2927.65906630 Ry
     Harris-Foulkes estimate   =   -2927.65906631 Ry
     estimated scf accuracy    <       0.00000006 Ry

     iteration # 35     ecut=    60.00 Ry     beta=0.70
     Davidson diagonalization with overlap
     ethr =  2.49E-11,  avg # of iterations =  5.0

     total cpu time spent up to now is      628.5 secs

     total energy              =   -2927.65906636 Ry
     Harris-Foulkes estimate   =   -2927.65906639 Ry
     estimated scf accuracy    <       0.00000026 Ry

     iteration # 36     ecut=    60.00 Ry     beta=0.70
     Davidson diagonalization with overlap
     ethr =  2.49E-11,  avg # of iterations =  1.0

     total cpu time spent up to now is      641.0 secs

     total energy              =   -2927.65906625 Ry
     Harris-Foulkes estimate   =   -2927.65906636 Ry
     estimated scf accuracy    <       0.00000020 Ry

     iteration # 37     ecut=    60.00 Ry     beta=0.70
     Davidson diagonalization with overlap
     ethr =  2.49E-11,  avg # of iterations =  5.0

     total cpu time spent up to now is      663.5 secs

     total energy              =   -2927.65906631 Ry
     Harris-Foulkes estimate   =   -2927.65906646 Ry
     estimated scf accuracy    <       0.00000061 Ry

     iteration # 38     ecut=    60.00 Ry     beta=0.70
     Davidson diagonalization with overlap
     ethr =  2.49E-11,  avg # of iterations =  5.5

     total cpu time spent up to now is      683.0 secs

     total energy              =   -2927.65906634 Ry
     Harris-Foulkes estimate   =   -2927.65906635 Ry
     estimated scf accuracy    <       0.00000004 Ry

     iteration # 39     ecut=    60.00 Ry     beta=0.70
     Davidson diagonalization with overlap
     ethr =  1.86E-11,  avg # of iterations =  1.0

     total cpu time spent up to now is      694.3 secs

     total energy              =   -2927.65906635 Ry
     Harris-Foulkes estimate   =   -2927.65906634 Ry
     estimated scf accuracy    <       0.00000002 Ry

     iteration # 40     ecut=    60.00 Ry     beta=0.70
     Davidson diagonalization with overlap
     ethr =  1.03E-11,  avg # of iterations =  5.0

     total cpu time spent up to now is      715.1 secs

     End of self-consistent calculation

          k = 0.0127 0.0172 0.0175 ( 38925 PWs)   bands (ev):

   -24.1304 -24.0941 -24.0235 -24.0158 -23.8313 -23.8077 -23.7718 -23.7594
   -23.5251 -23.5150 -23.5029 -23.4904 -23.4450 -23.4346 -23.4168 -23.3986
   -14.8131 -14.7963 -14.7323 -14.7292 -12.0804 -12.0655 -11.7102 -11.6963
   -11.6796 -11.6579 -11.6418 -11.6385 -10.3238 -10.2823  -8.9991  -8.9652
    -8.6921  -8.6490  -8.6199  -8.6038  -8.5537  -8.5332  -7.1898  -7.1506
    -6.9656  -6.9591  -6.9220  -6.8554  -6.5367  -6.5150  -6.4222  -6.4134
    -6.2803  -6.2619  -5.9658  -5.8857  -5.8550  -5.8255  -5.7337  -5.6581
    -5.5568  -5.5227  -5.1656  -5.1091  -5.0278  -4.9545  -4.8038  -4.7821
    -4.7457  -4.6694  -4.2275  -4.2026  -4.1468  -4.0971  -3.8834  -3.7612
    -3.6781  -3.6311  -3.5122  -3.4116  -3.3876  -3.3130  -2.8873  -2.8738
    -2.8459  -2.8139  -2.7498  -2.6947  -2.5713  -2.5471  -2.5030  -2.4665
    -2.4620  -2.4413  -1.8753  -1.8020  -1.7698  -1.7263  -1.7132  -1.6719
    -1.6440  -1.5803  -1.2313  -1.1876  -1.1085  -0.9292  -0.5930  -0.3966
    -0.2225  -0.2108  -0.1934   0.0775   0.6646   0.7958   0.8430   0.8813
     0.9110   1.0566   1.1088   1.1347   1.3185   1.3722   1.4622   1.5027

          k = 0.0126 0.0172-0.0115 ( 38910 PWs)   bands (ev):

   -24.1304 -24.0941 -24.0235 -24.0157 -23.8313 -23.8077 -23.7717 -23.7594
   -23.5251 -23.5151 -23.5029 -23.4904 -23.4449 -23.4346 -23.4169 -23.3986
   -14.8097 -14.7998 -14.7361 -14.7253 -12.0770 -12.0683 -11.7049 -11.6993
   -11.6758 -11.6721 -11.6391 -11.6336 -10.3253 -10.2818  -8.9865  -8.9774
    -8.6932  -8.6449  -8.6271  -8.5943  -8.5530  -8.5392  -7.1809  -7.1535
    -6.9695  -6.9552  -6.9133  -6.8824  -6.5262  -6.5207  -6.4183  -6.4115
    -6.2891  -6.2503  -5.9457  -5.8885  -5.8633  -5.8305  -5.7043  -5.6933
    -5.5536  -5.5051  -5.1820  -5.1435  -5.0324  -4.9533  -4.8071  -4.7457
    -4.7434  -4.6618  -4.2201  -4.2073  -4.1477  -4.0973  -3.8743  -3.7651
    -3.6843  -3.6349  -3.5056  -3.4139  -3.3891  -3.3101  -2.8946  -2.8769
    -2.8422  -2.8353  -2.7271  -2.7025  -2.5904  -2.5516  -2.4968  -2.4663
    -2.4627  -2.4462  -1.8828  -1.8003  -1.7699  -1.7344  -1.7003  -1.6620
    -1.6238  -1.5757  -1.2262  -1.2094  -1.1050  -0.9279  -0.5838  -0.3996
    -0.2300  -0.2058  -0.1915   0.0746   0.6955   0.7730   0.8402   0.8850
     0.9054   1.0558   1.1176   1.1431   1.3182   1.3696   1.4556   1.4997
 TIME (initial):        0.0
* Atoms contributing density to the main cell
  Number of atoms:   15778
 
 TIME (set up the environment):        0.1
 DOCALC: T F T T
 ESAVE:       0.000000000000       0.000000000000       0.000000000000
* XDM: using PAW all-electron density reconstruction? T
 TIME (promolecular grid):       15.4
 TIME (calculation of b grid):       15.8
 TIME (calculation of volumes and moments):       99.2
 
+ Volume and moments
# All results in atomic units.
# i              V                  Vfree                 M1                  M2                  M3
  1       138.5184600993       174.2312296757         9.4304292366       240.9016280063      6747.7205851853
  2       138.5184600993       174.2312296757         9.4304292366       240.9016280063      6747.7205851853
  3       139.6170493673       174.2312296757         9.1905046627       233.0893701502      6450.9910022436
  4       139.6170493673       174.2312296757         9.1905046627       233.0893701502      6450.9910022436
  5        34.2011801627        39.0349749523         3.9378056141        52.4759553044      1011.9227293659
  6        34.2011801627        39.0349749523         3.9378056141        52.4759553044      1011.9227293659
  7        34.0330376248        39.0349749523         3.8464443818        53.6566262467      1074.6522107662
  8        34.0330376248        39.0349749523         3.8464443818        53.6566262467      1074.6522107662
  9        34.3738321587        39.0349749523         3.8365949238        53.6859324002      1065.9051815193
 10        34.3738321587        39.0349749523         3.8365949238        53.6859324002      1065.9051815193
 11        34.4276661292        39.0349749523         3.8872932399        51.7567896543       999.1242451804
 12        34.4276661292        39.0349749523         3.8872932399        51.7567896543       999.1242451804
 13        33.7965873447        39.0349749523         3.8830126781        54.3018622247      1079.0935713233
 14        33.7965873447        39.0349749523         3.8830126781        54.3018622247      1079.0935713233
 15        33.7058426324        39.0349749523         3.8464339913        53.8083392273      1081.0899375328
 16        33.7058426324        39.0349749523         3.8464339913        53.8083392273      1081.0899375329
 17        33.9665845215        39.0349749523         3.8291937257        53.4704630463      1072.1954567624
 18        33.9665845215        39.0349749523         3.8291937257        53.4704630463      1072.1954567624
 19        34.3099646337        39.0349749523         3.8357714755        53.5780896454      1062.7900392510
 20        34.3099646337        39.0349749523         3.8357714755        53.5780896454      1062.7900392510
 21        34.3988624255        39.0349749523         3.8912122792        51.7975691599       999.5728369805
 22        34.3988624255        39.0349749523         3.8912122792        51.7975691599       999.5728369805
 23        34.2266934824        39.0349749523         3.9326411475        52.4097250725      1011.5528327128
 24        34.2266934824        39.0349749523         3.9326411475        52.4097250725      1011.5528327128
 25        33.9574587312        39.0349749523         3.8821617388        54.3660097418      1081.9522220547
 26        33.9574587312        39.0349749523         3.8821617388        54.3660097418      1081.9522220547
 27        34.0477232334        39.0349749523         3.8312317494        53.8236029122      1086.6339490819
 28        34.0477232334        39.0349749523         3.8312317494        53.8236029122      1086.6339490819
 29        17.8864676470        19.2806797260         4.6383140619        28.7782889356       245.5853460791
 30        17.8864676470        19.2806797260         4.6383140619        28.7782889356       245.5853460791
 31        17.6955196194        19.2806797260         4.5933609528        28.2505319983       238.5873151342
 32        17.6955196194        19.2806797260         4.5933609528        28.2505319983       238.5873151342
 33        17.7541192571        19.2806797260         4.5779043119        28.1744212375       240.0040210873
 34        17.7541192571        19.2806797260         4.5779043119        28.1744212375       240.0040210873
 35        17.9577748416        19.2806797260         4.6309563928        28.7112915544       246.2115945505
 36        17.9577748416        19.2806797260         4.6309563928        28.7112915544       246.2115945505
 37        17.8868721282        19.2806797260         4.6530902550        28.8633549952       246.0156443672
 38        17.8868721282        19.2806797260         4.6530902550        28.8633549953       246.0156443672
 39        17.8690952421        19.2806797260         4.6008937485        28.5390055761       244.3966925207
 40        17.8690952421        19.2806797260         4.6008937485        28.5390055761       244.3966925207
 41        17.6917121582        19.2806797260         4.5965345986        28.2394579771       239.0034277771
 42        17.6917121582        19.2806797260         4.5965345986        28.2394579771       239.0034277771
 43        17.9662550423        19.2806797260         4.6313847844        28.7341369048       246.5446824516
 44        17.9662550423        19.2806797260         4.6313847844        28.7341369048       246.5446824516
 45        71.6094062210        77.4908459489         7.7158504667       124.6562586789      2084.5520224872
 46        71.6094062210        77.4908459489         7.7158504667       124.6562586789      2084.5520224872
 
+ Dispersion coefficients
# All results in atomic units.
# i   j              C6                  C8                  C10                   Rc                  Rvdw
  1   1       166.9643151373     12795.3800382737    935473.1368714040         8.6521089386         8.0776397931
  2   1       166.9643151373     12795.3800382737    935473.1368714037         8.6521089386         8.0776397931
  2   2       166.9643151373     12795.3800382737    935473.1368714035         8.6521089386         8.0776397931
  3   1       165.4555989812     12634.3011779702    919265.8407141735         8.6339797896         8.0703065524
  3   2       165.4555989812     12634.3011779702    919265.8407141732         8.6339797896         8.0703065524
  3   3       164.0069907606     12478.6247043465    903554.2087500324         8.6157913328         8.0629493216
  4   1       165.4555989812     12634.3011779702    919265.8407141730         8.6339797896         8.0703065524
  4   2       165.4555989812     12634.3011779702    919265.8407141729         8.6339797896         8.0703065524
  4   3       164.0069907606     12478.6247043465    903554.2087500321         8.6157913328         8.0629493216
  4   4       164.0069907606     12478.6247043465    903554.2087500321         8.6157913328         8.0629493216
  5   1        57.5981326452      3358.3741756798    194380.2745808182         7.6218682500         7.6609074346
  5   2        57.5981326452      3358.3741756798    194380.2745808183         7.6218682500         7.6609074346
  5   3        56.9111201744      3302.6806094453    189929.5343868841         7.6006299460         7.6523165407
  5   4        56.9111201744      3302.6806094453    189929.5343868840         7.6006299460         7.6523165407
  5   5        20.4889989430       819.1210268833     36342.8189981081         6.4911650999         7.2035380104
  6   1        57.5981326452      3358.3741756798    194380.2745808190         7.6218682500         7.6609074346
  6   2        57.5981326452      3358.3741756798    194380.2745808192         7.6218682500         7.6609074346
  6   3        56.9111201744      3302.6806094453    189929.5343868849         7.6006299460         7.6523165407
  6   4        56.9111201744      3302.6806094453    189929.5343868848         7.6006299460         7.6523165407
  6   5        20.4889989430       819.1210268833     36342.8189981082         6.4911650999         7.2035380104
  6   6        20.4889989430       819.1210268834     36342.8189981083         6.4911650999         7.2035380104
  7   1        56.8751804810      3369.4115271679    198294.3975545440         7.6841761255         7.6861109702
  7   2        56.8751804810      3369.4115271679    198294.3975545441         7.6841761255         7.6861109702
  7   3        56.2052882013      3314.2836169657    193826.0828010079         7.6631862000         7.6776205454
  7   4        56.2052882013      3314.2836169657    193826.0828010078         7.6631862000         7.6776205454
  7   5        20.1992140075       826.4264452386     37439.0944589214         6.5628374318         7.2325294687
  7   6        20.1992140075       826.4264452386     37439.0944589215         6.5628374318         7.2325294687
  7   7        19.9152400173       833.4330234593     38532.9145770391         6.6336325866         7.2611661088
  8   1        56.8751804810      3369.4115271679    198294.3975545450         7.6841761255         7.6861109702
  8   2        56.8751804810      3369.4115271679    198294.3975545451         7.6841761255         7.6861109702
  8   3        56.2052882013      3314.2836169657    193826.0828010089         7.6631862000         7.6776205454
  8   4        56.2052882013      3314.2836169657    193826.0828010088         7.6631862000         7.6776205454
  8   5        20.1992140075       826.4264452386     37439.0944589216         6.5628374318         7.2325294687
  8   6        20.1992140075       826.4264452386     37439.0944589217         6.5628374318         7.2325294687
  8   7        19.9152400173       833.4330234593     38532.9145770393         6.6336325866         7.2611661088
  8   8        19.9152400173       833.4330234593     38532.9145770396         6.6336325866         7.2611661088
  9   1        57.1438868158      3389.0546999556    199319.0415318042         7.6850268361         7.6864550827
  9   2        57.1438868158      3389.0546999555    199319.0415318043         7.6850268361         7.6864550827
  9   3        56.4766128198      3333.9638678226    194846.6467266706         7.6640262838         7.6779603593
  9   4        56.4766128198      3333.9638678226    194846.6467266705         7.6640262838         7.6779603593
  9   5        20.2725131448       830.7466740203     37560.8982060308         6.5621262310         7.2322417879
  9   6        20.2725131448       830.7466740204     37560.8982060309         6.5621262310         7.2322417879
  9   7        19.9886695959       837.8087617155     38663.4049227570         6.6330434292         7.2609277946
  9   8        19.9886695959       837.8087617155     38663.4049227572         6.6330434292         7.2609277946
  9   9        20.0631571013       842.2384827693     38796.0149441873         6.6324644179         7.2606935845
 10   1        57.1438868158      3389.0546999556    199319.0415318061         7.6850268361         7.6864550827
 10   2        57.1438868158      3389.0546999556    199319.0415318063         7.6850268361         7.6864550827
 10   3        56.4766128198      3333.9638678227    194846.6467266725         7.6640262838         7.6779603593
 10   4        56.4766128198      3333.9638678227    194846.6467266725         7.6640262838         7.6779603593
 10   5        20.2725131448       830.7466740204     37560.8982060312         6.5621262310         7.2322417879
 10   6        20.2725131448       830.7466740204     37560.8982060313         6.5621262310         7.2322417879
 10   7        19.9886695959       837.8087617155     38663.4049227574         6.6330434292         7.2609277946
 10   8        19.9886695959       837.8087617155     38663.4049227576         6.6330434292         7.2609277946
 10   9        20.0631571013       842.2384827694     38796.0149441877         6.6324644179         7.2606935845
 10  10        20.0631571013       842.2384827694     38796.0149441881         6.6324644179         7.2606935845
 11   1        57.5114915793      3352.3009361276    194020.2051458291         7.6212031520         7.6606384025
 11   2        57.5114915793      3352.3009361276    194020.2051458293         7.6212031520         7.6606384025
 11   3        56.8345524412      3297.2277752178    189607.6430644957         7.5999643023         7.6520472878
 11   4        56.8345524412      3297.2277752178    189607.6430644956         7.5999643023         7.6520472878
 11   5        20.4234842418       816.1391017129     36214.9881835299         6.4906604340         7.2033338730
 11   6        20.4234842418       816.1391017129     36214.9881835299         6.4906604340         7.2033338730
 11   7        20.1364473883       823.5007822438     37310.6733393841         6.5623213810         7.2323207261
 11   8        20.1364473883       823.5007822438     37310.6733393843         6.5623213810         7.2323207261
 11   9        20.2107536539       827.8568714703     37434.2983489973         6.5616075219         7.2320319701
 11  10        20.2107536539       827.8568714703     37434.2983489977         6.5616075219         7.2320319701
 11  11        20.3601165456       813.2452616881     36091.0497787382         6.4901562842         7.2031299444
 12   1        57.5114915793      3352.3009361277    194020.2051458330         7.6212031520         7.6606384025
 12   2        57.5114915793      3352.3009361277    194020.2051458331         7.6212031520         7.6606384025
 12   3        56.8345524412      3297.2277752179    189607.6430644994         7.5999643023         7.6520472878
 12   4        56.8345524412      3297.2277752179    189607.6430644994         7.5999643023         7.6520472878
 12   5        20.4234842418       816.1391017129     36214.9881835305         6.4906604340         7.2033338730
 12   6        20.4234842418       816.1391017129     36214.9881835306         6.4906604340         7.2033338730
 12   7        20.1364473883       823.5007822438     37310.6733393848         6.5623213810         7.2323207261
 12   8        20.1364473883       823.5007822438     37310.6733393850         6.5623213810         7.2323207261
 12   9        20.2107536539       827.8568714703     37434.2983489981         6.5616075219         7.2320319701
 12  10        20.2107536539       827.8568714703     37434.2983489985         6.5616075219         7.2320319701
 12  11        20.3601165456       813.2452616881     36091.0497787389         6.4901562842         7.2031299444
 12  12        20.3601165456       813.2452616881     36091.0497787396         6.4901562842         7.2031299444
 13   1        56.8670947510      3371.9007863358    198309.3542593989         7.6845978102         7.6862815417
 13   2        56.8670947510      3371.9007863358    198309.3542593990         7.6845978102         7.6862815417
 13   3        56.1897678741      3316.3013440074    193813.6897558480         7.6635973048         7.6777868373
 13   4        56.1897678741      3316.3013440074    193813.6897558480         7.6635973048         7.6777868373
 13   5        20.2252381287       828.5468817765     37466.5573084240         6.5618429322         7.2321271936
 13   6        20.2252381287       828.5468817765     37466.5573084241         6.5618429322         7.2321271936
 13   7        19.9393789236       835.4839828571     38560.9574709524         6.6327494715         7.2608088887
 13   8        19.9393789236       835.4839828571     38560.9574709526         6.6327494715         7.2608088887
 13   9        20.0118675196       839.8256375467     38689.6729535262         6.6321685849         7.2605739201
 13  10        20.0118675196       839.8256375467     38689.6729535267         6.6321685849         7.2605739201
 13  11        20.1607744997       825.5479908133     37335.0075151653         6.5613246099         7.2319175322
 13  12        20.1607744997       825.5479908133     37335.0075151660         6.5613246099         7.2319175322
 13  13        19.9648950468       837.5952411361     38591.7188398394         6.6318730381         7.2604543714
 14   1        56.8670947510      3371.9007863358    198309.3542593994         7.6845978102         7.6862815417
 14   2        56.8670947510      3371.9007863358    198309.3542593995         7.6845978102         7.6862815417
 14   3        56.1897678741      3316.3013440074    193813.6897558485         7.6635973048         7.6777868373
 14   4        56.1897678741      3316.3013440074    193813.6897558484         7.6635973048         7.6777868373
 14   5        20.2252381287       828.5468817765     37466.5573084241         6.5618429322         7.2321271936
 14   6        20.2252381287       828.5468817765     37466.5573084242         6.5618429322         7.2321271936
 14   7        19.9393789236       835.4839828571     38560.9574709525         6.6327494715         7.2608088887
 14   8        19.9393789236       835.4839828571     38560.9574709527         6.6327494715         7.2608088887
 14   9        20.0118675196       839.8256375467     38689.6729535264         6.6321685849         7.2605739201
 14  10        20.0118675196       839.8256375467     38689.6729535268         6.6321685849         7.2605739201
 14  11        20.1607744997       825.5479908133     37335.0075151654         6.5613246099         7.2319175322
 14  12        20.1607744997       825.5479908133     37335.0075151661         6.5613246099         7.2319175322
 14  13        19.9648950468       837.5952411361     38591.7188398395         6.6318730381         7.2604543714
 14  14        19.9648950468       837.5952411361     38591.7188398396         6.6318730381         7.2604543714
 15   1        56.5553667051      3353.8142759888    197608.3272671197         7.6883515036         7.6877999107
 15   2        56.5553667051      3353.8142759888    197608.3272671199         7.6883515036         7.6877999107
 15   3        55.8848376951      3298.6969770952    193143.1692104390         7.6673790052         7.6793165351
 15   4        55.8848376951      3298.6969770952    193143.1692104390         7.6673790052         7.6793165351
 15   5        20.1025200854       823.6608070118     37371.6146494987         6.5677552016         7.2345187065
 15   6        20.1025200854       823.6608070118     37371.6146494988         6.5677552016         7.2345187065
 15   7        19.8190180055       830.5799155273     38458.9545792929         6.6384828870         7.2631280553
 15   8        19.8190180055       830.5799155273     38458.9545792931         6.6384828870         7.2631280553
 15   9        19.8914911407       834.9135857458     38588.2043314253         6.6379010636         7.2628927077
 15  10        19.8914911407       834.9135857458     38588.2043314258         6.6379010636         7.2628927077
 15  11        20.0391099141       820.7067874959     37241.6673064101         6.5672385969         7.2343097399
 15  12        20.0391099141       820.7067874959     37241.6673064109         6.5672385969         7.2343097399
 15  13        19.8438276501       832.6554264312     38488.6396507641         6.6376065403         7.2627735730
 15  14        19.8438276501       832.6554264312     38488.6396507642         6.6376065403         7.2627735730
 15  15        19.7237208186       827.7542235520     38385.8339558886         6.6433281514         7.2650879647
 16   1        56.5553667051      3353.8142759888    197608.3272671196         7.6883515036         7.6877999107
 16   2        56.5553667051      3353.8142759888    197608.3272671197         7.6883515036         7.6877999107
 16   3        55.8848376951      3298.6969770951    193143.1692104390         7.6673790052         7.6793165351
 16   4        55.8848376951      3298.6969770951    193143.1692104388         7.6673790052         7.6793165351
 16   5        20.1025200854       823.6608070118     37371.6146494987         6.5677552016         7.2345187065
 16   6        20.1025200854       823.6608070118     37371.6146494988         6.5677552016         7.2345187065
 16   7        19.8190180055       830.5799155273     38458.9545792929         6.6384828870         7.2631280553
 16   8        19.8190180055       830.5799155273     38458.9545792932         6.6384828870         7.2631280553
 16   9        19.8914911407       834.9135857458     38588.2043314254         6.6379010636         7.2628927077
 16  10        19.8914911407       834.9135857458     38588.2043314258         6.6379010636         7.2628927077
 16  11        20.0391099141       820.7067874959     37241.6673064102         6.5672385969         7.2343097399
 16  12        20.0391099141       820.7067874959     37241.6673064109         6.5672385969         7.2343097399
 16  13        19.8438276501       832.6554264312     38488.6396507642         6.6376065403         7.2627735730
 16  14        19.8438276501       832.6554264312     38488.6396507643         6.6376065403         7.2627735730
 16  15        19.7237208186       827.7542235520     38385.8339558887         6.6433281514         7.2650879647
 16  16        19.7237208186       827.7542235520     38385.8339558887         6.6433281514         7.2650879647
 17   1        56.7038962655      3360.4743564318    197853.7514697004         7.6856965766         7.6867259927
 17   2        56.7038962655      3360.4743564318    197853.7514697005         7.6856965766         7.6867259927
 17   3        56.0371840762      3305.5667993281    193400.4490822914         7.6647130594         7.6782381600
 17   4        56.0371840762      3305.5667993281    193400.4490822913         7.6647130594         7.6782381600
 17   5        20.1339287911       824.1850460271     37358.9691703700         6.5646354691         7.2332567747
 17   6        20.1339287911       824.1850460271     37358.9691703701         6.5646354691         7.2332567747
 17   7        19.8511064328       831.1727276307     38449.8716706944         6.6354054738         7.2618832416
 17   8        19.8511064328       831.1727276307     38449.8716706947         6.6354054738         7.2618832416
 17   9        19.9244580690       835.5425843790     38580.4518220710         6.6348189542         7.2616459945
 17  10        19.9244580690       835.5425843790     38580.4518220714         6.6348189542         7.2616459945
 17  11        20.0716137429       821.2776801888     37231.2832132721         6.5641192268         7.2330479547
 17  12        20.0716137429       821.2776801888     37231.2832132728         6.5641192268         7.2330479547
 17  13        19.8749601680       833.2088995087     38477.5137427051         6.6345247976         7.2615270081
 17  14        19.8749601680       833.2088995087     38477.5137427052         6.6345247976         7.2615270081
 17  15        19.7550731163       828.3216801886     38375.7627528700         6.6402539042         7.2638444317
 17  16        19.7550731163       828.3216801886     38375.7627528700         6.6402539042         7.2638444317
 17  17        19.7872113042       828.9196838521     38367.0427321869         6.6371776670         7.2626000938
 18   1        56.7038962655      3360.4743564318    197853.7514697034         7.6856965766         7.6867259927
 18   2        56.7038962655      3360.4743564318    197853.7514697035         7.6856965766         7.6867259927
 18   3        56.0371840762      3305.5667993281    193400.4490822943         7.6647130594         7.6782381600
 18   4        56.0371840762      3305.5667993281    193400.4490822942         7.6647130594         7.6782381600
 18   5        20.1339287911       824.1850460271     37358.9691703706         6.5646354691         7.2332567747
 18   6        20.1339287911       824.1850460271     37358.9691703707         6.5646354691         7.2332567747
 18   7        19.8511064328       831.1727276307     38449.8716706950         6.6354054738         7.2618832416
 18   8        19.8511064328       831.1727276307     38449.8716706953         6.6354054738         7.2618832416
 18   9        19.9244580690       835.5425843790     38580.4518220716         6.6348189542         7.2616459945
 18  10        19.9244580690       835.5425843790     38580.4518220720         6.6348189542         7.2616459945
 18  11        20.0716137429       821.2776801888     37231.2832132727         6.5641192268         7.2330479547
 18  12        20.0716137429       821.2776801888     37231.2832132734         6.5641192268         7.2330479547
 18  13        19.8749601680       833.2088995087     38477.5137427057         6.6345247976         7.2615270081
 18  14        19.8749601680       833.2088995087     38477.5137427058         6.6345247976         7.2615270081
 18  15        19.7550731163       828.3216801886     38375.7627528706         6.6402539042         7.2638444317
 18  16        19.7550731163       828.3216801886     38375.7627528706         6.6402539042         7.2638444317
 18  17        19.7872113042       828.9196838521     38367.0427321875         6.6371776670         7.2626000938
 18  18        19.7872113042       828.9196838521     38367.0427321880         6.6371776670         7.2626000938
 19   1        57.0771757993      3382.9483443972    198846.6779729932         7.6827126707         7.6855190028
 19   2        57.0771757993      3382.9483443972    198846.6779729933         7.6827126707         7.6855190028
 19   3        56.4099215211      3327.9021377964    194380.7763955049         7.6617037355         7.6770208885
 19   4        56.4099215211      3327.9021377964    194380.7763955048         7.6617037355         7.6770208885
 19   5        20.2517492496       829.1329778125     37463.4854235745         6.5595548992         7.2312016842
 19   6        20.2517492496       829.1329778125     37463.4854235746         6.5595548992         7.2312016842
 19   7        19.9680441346       836.1921353372     38564.0810333315         6.6304973179         7.2598978926
 19   8        19.9680441346       836.1921353372     38564.0810333317         6.6304973179         7.2598978926
 19   9        20.0423515147       840.6101516568     38696.0415385278         6.6299134524         7.2596617190
 19  10        20.0423515147       840.6101516568     38696.0415385282         6.6299134524         7.2596617190
 19  11        20.1898910222       826.2418296672     37336.9204395118         6.5590367273         7.2309920837
 19  12        20.1898910222       826.2418296672     37336.9204395125         6.5590367273         7.2309920837
 19  13        19.9913532268       838.2117219520     38590.4404228950         6.6296180923         7.2595422458
 19  14        19.9913532268       838.2117219520     38590.4404228951         6.6296180923         7.2595422458
 19  15        19.8710448766       833.3069130643     38489.3170924797         6.6353569946         7.2618636318
 19  16        19.8710448766       833.3069130643     38489.3170924797         6.6353569946         7.2618636318
 19  17        19.9038780698       833.9298412311     38481.3343676162         6.6322736089         7.2606164023
 19  18        19.9038780698       833.9298412311     38481.3343676168         6.6322736089         7.2606164023
 19  19        20.0215810500       838.9848596419     38596.3128965781         6.6273618282         7.2586295870
 20   1        57.0771757993      3382.9483443972    198846.6779729929         7.6827126707         7.6855190028
 20   2        57.0771757993      3382.9483443972    198846.6779729930         7.6827126707         7.6855190028
 20   3        56.4099215211      3327.9021377964    194380.7763955046         7.6617037355         7.6770208885
 20   4        56.4099215211      3327.9021377964    194380.7763955045         7.6617037355         7.6770208885
 20   5        20.2517492496       829.1329778125     37463.4854235745         6.5595548992         7.2312016842
 20   6        20.2517492496       829.1329778125     37463.4854235746         6.5595548992         7.2312016842
 20   7        19.9680441346       836.1921353372     38564.0810333315         6.6304973179         7.2598978926
 20   8        19.9680441346       836.1921353372     38564.0810333317         6.6304973179         7.2598978926
 20   9        20.0423515147       840.6101516568     38696.0415385277         6.6299134524         7.2596617190
 20  10        20.0423515147       840.6101516568     38696.0415385281         6.6299134524         7.2596617190
 20  11        20.1898910222       826.2418296672     37336.9204395118         6.5590367273         7.2309920837
 20  12        20.1898910222       826.2418296672     37336.9204395125         6.5590367273         7.2309920837
 20  13        19.9913532268       838.2117219520     38590.4404228949         6.6296180923         7.2595422458
 20  14        19.9913532268       838.2117219520     38590.4404228950         6.6296180923         7.2595422458
 20  15        19.8710448766       833.3069130643     38489.3170924796         6.6353569946         7.2618636318
 20  16        19.8710448766       833.3069130643     38489.3170924797         6.6353569946         7.2618636318
 20  17        19.9038780698       833.9298412311     38481.3343676161         6.6322736089         7.2606164023
 20  18        19.9038780698       833.9298412311     38481.3343676167         6.6322736089         7.2606164023
 20  19        20.0215810500       838.9848596419     38596.3128965780         6.6273618282         7.2586295870
 20  20        20.0215810500       838.9848596419     38596.3128965780         6.6273618282         7.2586295870
 21   1        57.5076567017      3351.8246864858    193972.6782140224         7.6208634947         7.6605010111
 21   2        57.5076567017      3351.8246864858    193972.6782140225         7.6208634947         7.6605010111
 21   3        56.8299066912      3296.7085152059    189558.0903288078         7.5996230881         7.6519092666
 21   4        56.8299066912      3296.7085152059    189558.0903288077         7.5996230881         7.6519092666
 21   5        20.4254021857       816.1259848309     36209.1745908939         6.4902465877         7.2031664722
 21   6        20.4254021857       816.1259848309     36209.1745908940         6.4902465877         7.2031664722
 21   7        20.1381661445       823.4825753259     37304.6186009500         6.5619141975         7.2321560204
 21   8        20.1381661445       823.4825753259     37304.6186009502         6.5619141975         7.2321560204
 21   9        20.2123619798       827.8339271606     37427.9930288971         6.5611997688         7.2318670340
 21  10        20.2123619798       827.8339271606     37427.9930288975         6.5611997688         7.2318670340
 21  11        20.3618453333       813.2248345649     36084.9314298356         6.4897424684         7.2029625560
 21  12        20.3618453333       813.2248345649     36084.9314298363         6.4897424684         7.2029625560
 21  13        20.1626481366       825.5361081109     37329.2179608755         6.5609168935         7.2317526109
 21  14        20.1626481366       825.5361081109     37329.2179608756         6.5609168935         7.2317526109
 21  15        20.0409096202       820.6924250825     37235.8074455593         6.5668318986         7.2341452305
 21  16        20.0409096202       820.6924250825     37235.8074455593         6.5668318986         7.2341452305
 21  17        20.0733034485       821.2586063146     37225.2043218949         6.5637122229         7.2328833217
 21  18        20.0733034485       821.2586063146     37225.2043218955         6.5637122229         7.2328833217
 21  19        20.1915130058       826.2194753232     37330.6515131347         6.5586287651         7.2308270629
 21  20        20.1915130058       826.2194753232     37330.6515131346         6.5586287651         7.2308270629
 21  21        20.3635915908       813.2050898914     36078.8432075316         6.4893286068         7.2027951489
 22   1        57.5076567017      3351.8246864859    193972.6782140231         7.6208634947         7.6605010111
 22   2        57.5076567017      3351.8246864858    193972.6782140233         7.6208634947         7.6605010111
 22   3        56.8299066912      3296.7085152059    189558.0903288085         7.5996230881         7.6519092666
 22   4        56.8299066912      3296.7085152059    189558.0903288084         7.5996230881         7.6519092666
 22   5        20.4254021857       816.1259848309     36209.1745908940         6.4902465877         7.2031664722
 22   6        20.4254021857       816.1259848309     36209.1745908941         6.4902465877         7.2031664722
 22   7        20.1381661445       823.4825753259     37304.6186009501         6.5619141975         7.2321560204
 22   8        20.1381661445       823.4825753259     37304.6186009503         6.5619141975         7.2321560204
 22   9        20.2123619798       827.8339271606     37427.9930288972         6.5611997688         7.2318670340
 22  10        20.2123619798       827.8339271606     37427.9930288976         6.5611997688         7.2318670340
 22  11        20.3618453333       813.2248345649     36084.9314298357         6.4897424684         7.2029625560
 22  12        20.3618453333       813.2248345649     36084.9314298364         6.4897424684         7.2029625560
 22  13        20.1626481366       825.5361081109     37329.2179608756         6.5609168935         7.2317526109
 22  14        20.1626481366       825.5361081109     37329.2179608757         6.5609168935         7.2317526109
 22  15        20.0409096202       820.6924250825     37235.8074455593         6.5668318986         7.2341452305
 22  16        20.0409096202       820.6924250825     37235.8074455594         6.5668318986         7.2341452305
 22  17        20.0733034485       821.2586063146     37225.2043218950         6.5637122229         7.2328833217
 22  18        20.0733034485       821.2586063146     37225.2043218956         6.5637122229         7.2328833217
 22  19        20.1915130058       826.2194753232     37330.6515131347         6.5586287651         7.2308270629
 22  20        20.1915130058       826.2194753232     37330.6515131347         6.5586287651         7.2308270629
 22  21        20.3635915908       813.2050898914     36078.8432075316         6.4893286068         7.2027951489
 22  22        20.3635915908       813.2050898914     36078.8432075317         6.4893286068         7.2027951489
 23   1        57.5920876517      3358.0786583369    194391.9845446413         7.6221827306         7.6610346420
 23   2        57.5920876517      3358.0786583369    194391.9845446415         7.6221827306         7.6610346420
 23   3        56.9061006239      3302.4455833735    189944.4817148538         7.6009467097         7.6524446715
 23   4        56.9061006239      3302.4455833735    189944.4817148537         7.6009467097         7.6524446715
 23   5        20.4831836710       818.9087947168     36343.2314514329         6.4916511192         7.2037346052
 23   6        20.4831836710       818.9087947169     36343.2314514330         6.4916511192         7.2037346052
 23   7        20.1936736709       826.2197369241     37439.4361446472         6.5633090636         7.2327202437
 23   8        20.1936736709       826.2197369241     37439.4361446474         6.5633090636         7.2327202437
 23   9        20.2670833209       830.5442058905     37561.4895016562         6.5625978701         7.2324325660
 23  10        20.2670833209       830.5442058905     37561.4895016566         6.5625978701         7.2324325660
 23  11        20.4178925265       815.9358417792     36215.7654941827         6.4911465785         7.2035305185
 23  12        20.4178925265       815.9358417792     36215.7654941834         6.4911465785         7.2035305185
 23  13        20.2195196899       828.3326136957     37466.5902847950         6.5623146434         7.2323180007
 23  14        20.2195196899       828.3326136957     37466.5902847950         6.5623146434         7.2323180007
 23  15        20.0969064104       823.4506700110     37371.7405495835         6.5682258782         7.2347090952
 23  16        20.0969064104       823.4506700110     37371.7405495835         6.5682258782         7.2347090952
 23  17        20.1284326685       823.9799648702     37359.3481591167         6.5651067518         7.2334474086
 23  18        20.1284326685       823.9799648702     37359.3481591173         6.5651067518         7.2334474086
 23  19        20.2463078536       828.9302198864     37464.0587888444         6.5600270506         7.2313926694
 23  20        20.2463078536       828.9302198864     37464.0587888443         6.5600270506         7.2313926694
 23  21        20.4197905663       815.9219560475     36209.9199673237         6.4907328153         7.2033631513
 23  22        20.4197905663       815.9219560475     36209.9199673238         6.4907328153         7.2033631513
 23  23        20.4773917333       818.6974839665     36343.6792651055         6.4921370491         7.2039311638
 24   1        57.5920876517      3358.0786583369    194391.9845446423         7.6221827306         7.6610346420
 24   2        57.5920876517      3358.0786583369    194391.9845446424         7.6221827306         7.6610346420
 24   3        56.9061006239      3302.4455833736    189944.4817148547         7.6009467097         7.6524446715
 24   4        56.9061006239      3302.4455833736    189944.4817148547         7.6009467097         7.6524446715
 24   5        20.4831836710       818.9087947169     36343.2314514332         6.4916511192         7.2037346052
 24   6        20.4831836710       818.9087947169     36343.2314514333         6.4916511192         7.2037346052
 24   7        20.1936736709       826.2197369241     37439.4361446474         6.5633090636         7.2327202437
 24   8        20.1936736709       826.2197369241     37439.4361446476         6.5633090636         7.2327202437
 24   9        20.2670833209       830.5442058905     37561.4895016564         6.5625978701         7.2324325660
 24  10        20.2670833209       830.5442058905     37561.4895016568         6.5625978701         7.2324325660
 24  11        20.4178925265       815.9358417792     36215.7654941830         6.4911465785         7.2035305185
 24  12        20.4178925265       815.9358417792     36215.7654941836         6.4911465785         7.2035305185
 24  13        20.2195196899       828.3326136957     37466.5902847952         6.5623146434         7.2323180007
 24  14        20.2195196899       828.3326136957     37466.5902847953         6.5623146434         7.2323180007
 24  15        20.0969064104       823.4506700110     37371.7405495837         6.5682258782         7.2347090952
 24  16        20.0969064104       823.4506700110     37371.7405495838         6.5682258782         7.2347090952
 24  17        20.1284326685       823.9799648702     37359.3481591169         6.5651067518         7.2334474086
 24  18        20.1284326685       823.9799648702     37359.3481591175         6.5651067518         7.2334474086
 24  19        20.2463078536       828.9302198865     37464.0587888446         6.5600270506         7.2313926694
 24  20        20.2463078536       828.9302198864     37464.0587888446         6.5600270506         7.2313926694
 24  21        20.4197905663       815.9219560475     36209.9199673239         6.4907328153         7.2033631513
 24  22        20.4197905663       815.9219560475     36209.9199673240         6.4907328153         7.2033631513
 24  23        20.4773917333       818.6974839665     36343.6792651058         6.4921370491         7.2039311638
 24  24        20.4773917333       818.6974839665     36343.6792651060         6.4921370491         7.2039311638
 25   1        57.0203326664      3382.6623901861    199054.4921921412         7.6866331041         7.6871048181
 25   2        57.0203326664      3382.6623901861    199054.4921921413         7.6866331041         7.6871048181
 25   3        56.3434605241      3327.0277962816    194551.2264414589         7.6656409664         7.6786134984
 25   4        56.3434605241      3327.0277962816    194551.2264414589         7.6656409664         7.6786134984
 25   5        20.2709797223       831.0163620379     37605.8398566770         6.5642250783         7.2330907717
 25   6        20.2709797223       831.0163620379     37605.8398566771         6.5642250783         7.2330907717
 25   7        19.9849343277       837.9800347868     38703.8607393650         6.6350998829         7.2617596301
 25   8        19.9849343277       837.9800347868     38703.8607393652         6.6350998829         7.2617596301
 25   9        20.0579005851       842.3468483170     38833.7453834891         6.6345226498         7.2615261393
 25  10        20.0579005851       842.3468483170     38833.7453834896         6.6345226498         7.2615261393
 25  11        20.2068599377       828.0288544189     37474.7070612421         6.5637064637         7.2328809920
 25  12        20.2068599377       828.0288544189     37474.7070612428         6.5637064637         7.2328809920
 25  13        20.0101003324       840.0797217104     38734.0292295912         6.6342268118         7.2614064728
 25  14        20.0101003324       840.0797217104     38734.0292295913         6.6342268118         7.2614064728
 25  15        19.8889261906       835.1321849264     38630.7163197350         6.6399545678         7.2637233502
 25  16        19.8889261906       835.1321849264     38630.7163197350         6.6399545678         7.2637233502
 25  17        19.9204312420       835.7004929553     38620.1944730850         6.6368743231         7.2624773912
 25  18        19.9204312420       835.7004929553     38620.1944730856         6.6368743231         7.2624773912
 25  19        20.0372981708       840.7268986253     38734.1076079916         6.6319731077         7.2604948495
 25  20        20.0372981708       840.7268986253     38734.1076079916         6.6319731077         7.2604948495
 25  21        20.2086915617       828.0151028457     37468.8186163798         6.5632989782         7.2327161642
 25  22        20.2086915617       828.0151028457     37468.8186163798         6.5632989782         7.2327161642
 25  23        20.2653001495       830.8035645255     37605.9547062920         6.5646963253         7.2332813911
 25  24        20.2653001495       830.8035645255     37605.9547062923         6.5646963253         7.2332813911
 25  25        20.0555317141       842.5763576411     38877.0584072355         6.6365794585         7.2623581185
 26   1        57.0203326664      3382.6623901861    199054.4921921426         7.6866331041         7.6871048181
 26   2        57.0203326664      3382.6623901861    199054.4921921427         7.6866331041         7.6871048181
 26   3        56.3434605241      3327.0277962816    194551.2264414603         7.6656409664         7.6786134984
 26   4        56.3434605241      3327.0277962816    194551.2264414602         7.6656409664         7.6786134984
 26   5        20.2709797223       831.0163620379     37605.8398566773         6.5642250783         7.2330907717
 26   6        20.2709797223       831.0163620379     37605.8398566774         6.5642250783         7.2330907717
 26   7        19.9849343277       837.9800347868     38703.8607393653         6.6350998829         7.2617596301
 26   8        19.9849343277       837.9800347868     38703.8607393655         6.6350998829         7.2617596301
 26   9        20.0579005851       842.3468483170     38833.7453834894         6.6345226498         7.2615261393
 26  10        20.0579005851       842.3468483170     38833.7453834898         6.6345226498         7.2615261393
 26  11        20.2068599377       828.0288544189     37474.7070612423         6.5637064637         7.2328809920
 26  12        20.2068599377       828.0288544189     37474.7070612431         6.5637064637         7.2328809920
 26  13        20.0101003324       840.0797217104     38734.0292295915         6.6342268118         7.2614064728
 26  14        20.0101003324       840.0797217104     38734.0292295916         6.6342268118         7.2614064728
 26  15        19.8889261906       835.1321849264     38630.7163197353         6.6399545678         7.2637233502
 26  16        19.8889261906       835.1321849264     38630.7163197353         6.6399545678         7.2637233502
 26  17        19.9204312420       835.7004929553     38620.1944730853         6.6368743231         7.2624773912
 26  18        19.9204312420       835.7004929553     38620.1944730859         6.6368743231         7.2624773912
 26  19        20.0372981708       840.7268986253     38734.1076079919         6.6319731077         7.2604948495
 26  20        20.0372981708       840.7268986253     38734.1076079919         6.6319731077         7.2604948495
 26  21        20.2086915617       828.0151028457     37468.8186163800         6.5632989782         7.2327161642
 26  22        20.2086915617       828.0151028457     37468.8186163801         6.5632989782         7.2327161642
 26  23        20.2653001495       830.8035645255     37605.9547062923         6.5646963253         7.2332813911
 26  24        20.2653001495       830.8035645255     37605.9547062926         6.5646963253         7.2332813911
 26  25        20.0555317141       842.5763576411     38877.0584072358         6.6365794585         7.2623581185
 26  26        20.0555317141       842.5763576411     38877.0584072361         6.6365794585         7.2623581185
 27   1        56.7952766349      3373.1096305223    199100.1639698226         7.6946734435         7.6903571354
 27   2        56.7952766349      3373.1096305223    199100.1639698227         7.6946734435         7.6903571354
 27   3        56.1283401572      3318.0789566162    194628.0676027865         7.6737274071         7.6818844637
 27   4        56.1283401572      3318.0789566162    194628.0676027865         7.6737274071         7.6818844637
 27   5        20.1631201653       827.9431109097     37654.7408095086         6.5752147640         7.2375360995
 27   6        20.1631201653       827.9431109097     37654.7408095087         6.5752147640         7.2375360995
 27   7        19.8800586212       834.9120954840     38748.5758079892         6.6458393362         7.2661037390
 27   8        19.8800586212       834.9120954840     38748.5758079894         6.6458393362         7.2661037390
 27   9        19.9536330908       839.3025365559     38880.7772689497         6.6452684869         7.2658728304
 27  10        19.9536330908       839.3025365559     38880.7772689501         6.6452684869         7.2658728304
 27  11        20.1008965223       825.0310568733     37526.3765491483         6.5746973496         7.2373268054
 27  12        20.1008965223       825.0310568734     37526.3765491490         6.5746973496         7.2373268054
 27  13        19.9037955541       836.9478993283     38776.5009350204         6.6449731284         7.2657533579
 27  14        19.9037955541       836.9478993283     38776.5009350205         6.6449731284         7.2657533579
 27  15        19.7837966919       832.0409402601     38673.2899653921         6.6506769215         7.2680605422
 27  16        19.7837966919       832.0409402601     38673.2899653922         6.6506769215         7.2680605422
 27  17        19.8160936346       832.6486119337     38664.9909889764         6.6476075030         7.2668189625
 27  18        19.8160936346       832.6486119338     38664.9909889770         6.6476075030         7.2668189625
 27  19        19.9330077592       837.6841732888     38781.0550976254         6.6427275511         7.2648450219
 27  20        19.9330077592       837.6841732888     38781.0550976254         6.6427275511         7.2648450219
 27  21        20.1025715070       825.0114649594     37520.2560195206         6.5742913897         7.2371625946
 27  22        20.1025715070       825.0114649594     37520.2560195207         6.5742913897         7.2371625946
 27  23        20.1576352990       827.7378221764     37655.0950368510         6.5756839983         7.2377259048
 27  24        20.1576352990       827.7378221764     37655.0950368512         6.5756839983         7.2377259048
 27  25        19.9493785273       839.4508289011     38920.1736901368         6.6473175190         7.2667016639
 27  26        19.9493785273       839.4508289011     38920.1736901371         6.6473175190         7.2667016639
 27  27        19.8450351735       836.3873783862     38964.3593795464         6.6580139839         7.2710283840
 28   1        56.7952766349      3373.1096305223    199100.1639698244         7.6946734435         7.6903571354
 28   2        56.7952766349      3373.1096305223    199100.1639698245         7.6946734435         7.6903571354
 28   3        56.1283401572      3318.0789566163    194628.0676027883         7.6737274071         7.6818844637
 28   4        56.1283401572      3318.0789566163    194628.0676027882         7.6737274071         7.6818844637
 28   5        20.1631201653       827.9431109097     37654.7408095089         6.5752147640         7.2375360995
 28   6        20.1631201653       827.9431109097     37654.7408095090         6.5752147640         7.2375360995
 28   7        19.8800586212       834.9120954840     38748.5758079895         6.6458393362         7.2661037390
 28   8        19.8800586212       834.9120954840     38748.5758079898         6.6458393362         7.2661037390
 28   9        19.9536330908       839.3025365559     38880.7772689500         6.6452684869         7.2658728304
 28  10        19.9536330908       839.3025365559     38880.7772689504         6.6452684869         7.2658728304
 28  11        20.1008965223       825.0310568733     37526.3765491486         6.5746973496         7.2373268054
 28  12        20.1008965223       825.0310568734     37526.3765491493         6.5746973496         7.2373268054
 28  13        19.9037955541       836.9478993283     38776.5009350208         6.6449731284         7.2657533579
 28  14        19.9037955541       836.9478993283     38776.5009350208         6.6449731284         7.2657533579
 28  15        19.7837966919       832.0409402601     38673.2899653925         6.6506769215         7.2680605422
 28  16        19.7837966919       832.0409402601     38673.2899653925         6.6506769215         7.2680605422
 28  17        19.8160936346       832.6486119338     38664.9909889767         6.6476075030         7.2668189625
 28  18        19.8160936346       832.6486119338     38664.9909889773         6.6476075030         7.2668189625
 28  19        19.9330077592       837.6841732888     38781.0550976258         6.6427275511         7.2648450219
 28  20        19.9330077592       837.6841732888     38781.0550976258         6.6427275511         7.2648450219
 28  21        20.1025715070       825.0114649594     37520.2560195210         6.5742913897         7.2371625946
 28  22        20.1025715070       825.0114649594     37520.2560195211         6.5742913897         7.2371625946
 28  23        20.1576352990       827.7378221764     37655.0950368513         6.5756839983         7.2377259048
 28  24        20.1576352990       827.7378221764     37655.0950368516         6.5756839983         7.2377259048
 28  25        19.9493785273       839.4508289011     38920.1736901371         6.6473175190         7.2667016639
 28  26        19.9493785273       839.4508289011     38920.1736901374         6.6473175190         7.2667016639
 28  27        19.8450351735       836.3873783862     38964.3593795467         6.6580139839         7.2710283840
 28  28        19.8450351735       836.3873783862     38964.3593795471         6.6580139839         7.2710283840
 29   1        27.3984100656      1304.8332955571     60348.3443518574         6.8508232086         7.3490197153
 29   2        27.3984100656      1304.8332955571     60348.3443518576         6.8508232086         7.3490197153
 29   3        26.8496521213      1271.3222646576     58280.7868400845         6.8258407468         7.3389143096
 29   4        26.8496521213      1271.3222646576     58280.7868400845         6.8258407468         7.3389143096
[...]
  Evdw6 =  -7.643534456057E-02 Hartree,  -1.528706891211E-01 Ry
  Evdw8 =  -5.077727825988E-02 Hartree,  -1.015545565198E-01 Ry
  Evdw10 =  -4.104333347471E-02 Hartree,  -8.208666694943E-02 Ry
  Evdw9  =   0.000000000000E+00 Hartree,   0.000000000000E+00 Ry
  Fvdw (01) =  -4.142306401424E-05  -3.972825727682E-04   4.975521828494E-05  Hartree/bohr
            =  -8.284612802849E-05  -7.945651455364E-04   9.951043656988E-05  Ry/bohr
  Fvdw (02) =  -4.142306401425E-05   3.972825727682E-04   4.975521828494E-05  Hartree/bohr
            =  -8.284612802849E-05   7.945651455364E-04   9.951043656987E-05  Ry/bohr
  Fvdw (03) =   1.928380816481E-04   6.800330416507E-04  -5.817895231428E-04  Hartree/bohr
            =   3.856761632962E-04   1.360066083301E-03  -1.163579046286E-03  Ry/bohr
  Fvdw (04) =   1.928380816481E-04  -6.800330416507E-04  -5.817895231428E-04  Hartree/bohr
            =   3.856761632961E-04  -1.360066083301E-03  -1.163579046286E-03  Ry/bohr
  Fvdw (05) =   3.538107496943E-04   2.231703228210E-04   2.034734091765E-04  Hartree/bohr
            =   7.076214993886E-04   4.463406456420E-04   4.069468183529E-04  Ry/bohr
  Fvdw (06) =   3.538107496943E-04  -2.231703228210E-04   2.034734091765E-04  Hartree/bohr
            =   7.076214993886E-04  -4.463406456420E-04   4.069468183529E-04  Ry/bohr
  Fvdw (07) =  -3.178018535918E-04   5.593586880407E-05   6.906959006277E-05  Hartree/bohr
            =  -6.356037071836E-04   1.118717376081E-04   1.381391801255E-04  Ry/bohr
  Fvdw (08) =  -3.178018535918E-04  -5.593586880407E-05   6.906959006277E-05  Hartree/bohr
            =  -6.356037071836E-04  -1.118717376081E-04   1.381391801255E-04  Ry/bohr
  Fvdw (09) =  -3.715293690456E-04  -5.279259714931E-05  -1.756506590988E-04  Hartree/bohr
            =  -7.430587380913E-04  -1.055851942986E-04  -3.513013181975E-04  Ry/bohr
  Fvdw (10) =  -3.715293690456E-04   5.279259714931E-05  -1.756506590988E-04  Hartree/bohr
            =  -7.430587380913E-04   1.055851942986E-04  -3.513013181975E-04  Ry/bohr
  Fvdw (11) =  -2.708040221187E-04   1.002918226126E-04  -4.134421514871E-05  Hartree/bohr
            =  -5.416080442373E-04   2.005836452251E-04  -8.268843029742E-05  Ry/bohr
  Fvdw (12) =  -2.708040221187E-04  -1.002918226126E-04  -4.134421514871E-05  Hartree/bohr
            =  -5.416080442374E-04  -2.005836452251E-04  -8.268843029742E-05  Ry/bohr
  Fvdw (13) =   5.481272362303E-04   1.435256011816E-04   2.178963181435E-04  Hartree/bohr
            =   1.096254472461E-03   2.870512023631E-04   4.357926362870E-04  Ry/bohr
  Fvdw (14) =   5.481272362303E-04  -1.435256011816E-04   2.178963181435E-04  Hartree/bohr
            =   1.096254472461E-03  -2.870512023631E-04   4.357926362870E-04  Ry/bohr
  Fvdw (15) =   2.459979395982E-04   2.631455748411E-04   2.469938572285E-04  Hartree/bohr
            =   4.919958791964E-04   5.262911496823E-04   4.939877144571E-04  Ry/bohr
  Fvdw (16) =   2.459979395982E-04  -2.631455748411E-04   2.469938572285E-04  Hartree/bohr
            =   4.919958791964E-04  -5.262911496823E-04   4.939877144571E-04  Ry/bohr
  Fvdw (17) =   2.355091048666E-04   1.605201833158E-04   2.160813890730E-04  Hartree/bohr
            =   4.710182097331E-04   3.210403666316E-04   4.321627781460E-04  Ry/bohr
  Fvdw (18) =   2.355091048666E-04  -1.605201833158E-04   2.160813890730E-04  Hartree/bohr
            =   4.710182097331E-04  -3.210403666316E-04   4.321627781460E-04  Ry/bohr
  Fvdw (19) =   3.839281130400E-04   2.918413097432E-05   1.070993525197E-05  Hartree/bohr
            =   7.678562260801E-04   5.836826194864E-05   2.141987050395E-05  Ry/bohr
  Fvdw (20) =   3.839281130400E-04  -2.918413097432E-05   1.070993525197E-05  Hartree/bohr
            =   7.678562260801E-04  -5.836826194864E-05   2.141987050395E-05  Ry/bohr
  Fvdw (21) =   2.837567305637E-04   1.185152184501E-04   9.820369888364E-05  Hartree/bohr
            =   5.675134611274E-04   2.370304369002E-04   1.964073977673E-04  Ry/bohr
  Fvdw (22) =   2.837567305637E-04  -1.185152184501E-04   9.820369888364E-05  Hartree/bohr
            =   5.675134611274E-04  -2.370304369002E-04   1.964073977673E-04  Ry/bohr
  Fvdw (23) =  -3.838834280060E-04   2.307880673496E-04   2.794065653347E-05  Hartree/bohr
            =  -7.677668560121E-04   4.615761346993E-04   5.588131306695E-05  Ry/bohr
  Fvdw (24) =  -3.838834280060E-04  -2.307880673496E-04   2.794065653347E-05  Hartree/bohr
            =  -7.677668560121E-04  -4.615761346993E-04   5.588131306694E-05  Ry/bohr
  Fvdw (25) =  -5.490334091240E-04   1.726530722542E-04  -6.300151954691E-05  Hartree/bohr
            =  -1.098066818248E-03   3.453061445085E-04  -1.260030390938E-04  Ry/bohr
  Fvdw (26) =  -5.490334091240E-04  -1.726530722542E-04  -6.300151954691E-05  Hartree/bohr
            =  -1.098066818248E-03  -3.453061445084E-04  -1.260030390938E-04  Ry/bohr
  Fvdw (27) =  -3.061073786644E-04   2.664152171875E-04   2.268213376785E-05  Hartree/bohr
            =  -6.122147573288E-04   5.328304343749E-04   4.536426753570E-05  Ry/bohr
  Fvdw (28) =  -3.061073786644E-04  -2.664152171875E-04   2.268213376785E-05  Hartree/bohr
            =  -6.122147573288E-04  -5.328304343750E-04   4.536426753570E-05  Ry/bohr
  Fvdw (29) =   2.187215201916E-04  -5.369794687537E-05   9.996318790379E-05  Hartree/bohr
            =   4.374430403833E-04  -1.073958937507E-04   1.999263758076E-04  Ry/bohr
  Fvdw (30) =   2.187215201916E-04   5.369794687537E-05   9.996318790379E-05  Hartree/bohr
            =   4.374430403833E-04   1.073958937507E-04   1.999263758076E-04  Ry/bohr
  Fvdw (31) =  -2.235804734551E-05   2.262765170123E-04   7.933136568068E-05  Hartree/bohr
            =  -4.471609469103E-05   4.525530340245E-04   1.586627313614E-04  Ry/bohr
  Fvdw (32) =  -2.235804734551E-05  -2.262765170123E-04   7.933136568068E-05  Hartree/bohr
            =  -4.471609469103E-05  -4.525530340245E-04   1.586627313614E-04  Ry/bohr
  Fvdw (33) =   3.912669664093E-06  -1.024631034087E-04   7.050371421566E-05  Hartree/bohr
            =   7.825339328186E-06  -2.049262068173E-04   1.410074284313E-04  Ry/bohr
  Fvdw (34) =   3.912669664092E-06   1.024631034087E-04   7.050371421566E-05  Hartree/bohr
            =   7.825339328185E-06   2.049262068173E-04   1.410074284313E-04  Ry/bohr
  Fvdw (35) =   1.392425638436E-04  -5.696894198090E-05  -3.898746131325E-05  Hartree/bohr
            =   2.784851276872E-04  -1.139378839618E-04  -7.797492262649E-05  Ry/bohr
  Fvdw (36) =   1.392425638436E-04   5.696894198090E-05  -3.898746131325E-05  Hartree/bohr
            =   2.784851276872E-04   1.139378839618E-04  -7.797492262649E-05  Ry/bohr
  Fvdw (37) =  -2.407612131866E-04  -2.296793379097E-05  -1.577692394230E-05  Hartree/bohr
            =  -4.815224263732E-04  -4.593586758194E-05  -3.155384788461E-05  Ry/bohr
  Fvdw (38) =  -2.407612131866E-04   2.296793379097E-05  -1.577692394231E-05  Hartree/bohr
            =  -4.815224263732E-04   4.593586758195E-05  -3.155384788461E-05  Ry/bohr
  Fvdw (39) =  -1.506618576737E-05   2.182487513804E-04  -1.053049551631E-05  Hartree/bohr
            =  -3.013237153474E-05   4.364975027608E-04  -2.106099103262E-05  Ry/bohr
  Fvdw (40) =  -1.506618576737E-05  -2.182487513804E-04  -1.053049551631E-05  Hartree/bohr
            =  -3.013237153474E-05  -4.364975027608E-04  -2.106099103262E-05  Ry/bohr
  Fvdw (41) =  -4.247897227646E-05  -1.321278686739E-04   1.091578328611E-04  Hartree/bohr
            =  -8.495794455292E-05  -2.642557373477E-04   2.183156657223E-04  Ry/bohr
  Fvdw (42) =  -4.247897227646E-05   1.321278686739E-04   1.091578328611E-04  Hartree/bohr
            =  -8.495794455292E-05   2.642557373477E-04   2.183156657223E-04  Ry/bohr
  Fvdw (43) =  -1.608188878145E-04  -6.615184291344E-05  -1.095630176126E-04  Hartree/bohr
            =  -3.216377756290E-04  -1.323036858269E-04  -2.191260352252E-04  Ry/bohr
  Fvdw (44) =  -1.608188878145E-04   6.615184291344E-05  -1.095630176126E-04  Hartree/bohr
            =  -3.216377756290E-04   1.323036858269E-04  -2.191260352252E-04  Ry/bohr
  Fvdw (45) =   1.162211216147E-04   4.302103771435E-04  -4.851184917457E-04  Hartree/bohr
            =   2.324422432294E-04   8.604207542870E-04  -9.702369834915E-04  Ry/bohr
  Fvdw (46) =   1.162211216147E-04  -4.302103771435E-04  -4.851184917457E-04  Hartree/bohr
            =   2.324422432294E-04  -8.604207542870E-04  -9.702369834915E-04  Ry/bohr
  sigma_vdw (Hy/bohr**3) =  -3.494825059931E-05  -5.764397755639E-21   1.015022311031E-06  
                            -5.764397755639E-21  -3.256282897108E-05   7.197293592429E-21  
                             1.015022311031E-06   7.197293592429E-21  -3.775559381848E-05  
  sigma_vdw (Ry/bohr**3) =  -6.989650119861E-05  -1.152879551128E-20   2.030044622061E-06  
                            -1.152879551128E-20  -6.512565794216E-05   1.439458718486E-20  
                             2.030044622061E-06   1.439458718486E-20  -7.551118763696E-05  
  sigma_vdw (GPa) =  -1.028212858453E+00  -1.695944086456E-16   2.986298237885E-02  
                     -1.695944086456E-16  -9.580313429578E-01   2.117516525404E-16  
                      2.986298237885E-02   2.117516525404E-16  -1.110807733634E+00  
 
 TIME (final):      199.2

!    total energy              =   -2927.99553687 Ry
     Harris-Foulkes estimate   =   -2927.99553688 Ry
     estimated scf accuracy    <          8.7E-09 Ry

     total all-electron energy =    -58487.202473 Ry

     The total energy is the sum of the following terms:

     one-electron contribution =    -935.19657564 Ry
     hartree contribution      =     578.09049501 Ry
     xc contribution           =    -323.88737763 Ry
     ewald contribution        =    -503.53516091 Ry
     Dispersion XDM Correction =      -0.33651191 Ry
     Uncorrected (XDM) energy  =   -2927.65902496 Ry
     one-center paw contrib.   =   -1743.13040579 Ry

     convergence has been achieved in  47 iterations

     Forces acting on atoms (Ry/au):

     atom    1 type  2   force =    -0.00020888   -0.00011251   -0.00042762
     atom    2 type  2   force =    -0.00020888    0.00011251   -0.00042762
     atom    3 type  2   force =    -0.00012883   -0.00011960    0.00019589
     atom    4 type  2   force =    -0.00012883    0.00011960    0.00019589
     atom    5 type  1   force =    -0.00005125   -0.00002962    0.00038177
     atom    6 type  1   force =    -0.00005125    0.00002962    0.00038177
     atom    7 type  1   force =    -0.00025871    0.00092957   -0.00021930
     atom    8 type  1   force =    -0.00025871   -0.00092957   -0.00021930
     atom    9 type  1   force =    -0.00020454   -0.00031727    0.00002996
     atom   10 type  1   force =    -0.00020454    0.00031727    0.00002996
     atom   11 type  1   force =     0.00017497    0.00060932    0.00010637
     atom   12 type  1   force =     0.00017497   -0.00060932    0.00010637
     atom   13 type  1   force =     0.00025906    0.00032551    0.00029444
     atom   14 type  1   force =     0.00025906   -0.00032551    0.00029444
     atom   15 type  1   force =     0.00027516    0.00003580   -0.00012185
     atom   16 type  1   force =     0.00027516   -0.00003580   -0.00012185
     atom   17 type  1   force =     0.00037346    0.00036579   -0.00007337
     atom   18 type  1   force =     0.00037346   -0.00036579   -0.00007337
     atom   19 type  1   force =    -0.00032151    0.00004607   -0.00004563
     atom   20 type  1   force =    -0.00032151   -0.00004607   -0.00004563
     atom   21 type  1   force =    -0.00014305    0.00040875   -0.00004030
     atom   22 type  1   force =    -0.00014305   -0.00040875   -0.00004030
     atom   23 type  1   force =     0.00017655   -0.00062108    0.00011267
     atom   24 type  1   force =     0.00017655    0.00062108    0.00011267
     atom   25 type  1   force =    -0.00012543    0.00042380   -0.00007889
     atom   26 type  1   force =    -0.00012543   -0.00042380   -0.00007889
     atom   27 type  1   force =    -0.00046543   -0.00049614   -0.00043176
     atom   28 type  1   force =    -0.00046543    0.00049614   -0.00043176
     atom   29 type  4   force =    -0.00002258    0.00002272    0.00020537
     atom   30 type  4   force =    -0.00002258   -0.00002272    0.00020537
     atom   31 type  4   force =     0.00023264    0.00001854   -0.00016143
     atom   32 type  4   force =     0.00023264   -0.00001854   -0.00016143
     atom   33 type  4   force =    -0.00037799   -0.00032109    0.00021608
     atom   34 type  4   force =    -0.00037799    0.00032109    0.00021608
     atom   35 type  4   force =    -0.00013508    0.00037425   -0.00010263
     atom   36 type  4   force =    -0.00013508   -0.00037425   -0.00010263
     atom   37 type  4   force =     0.00024874    0.00007308    0.00073892
     atom   38 type  4   force =     0.00024874   -0.00007308    0.00073892
     atom   39 type  4   force =    -0.00012132   -0.00006588   -0.00072498
     atom   40 type  4   force =    -0.00012132    0.00006588   -0.00072498
     atom   41 type  4   force =     0.00039219   -0.00050199    0.00019248
     atom   42 type  4   force =     0.00039219    0.00050199    0.00019248
     atom   43 type  4   force =     0.00017514    0.00040784    0.00035779
     atom   44 type  4   force =     0.00017514   -0.00040784    0.00035779
     atom   45 type  3   force =     0.00025667   -0.00014996   -0.00040398
     atom   46 type  3   force =     0.00025667    0.00014996   -0.00040398

     Total force =     0.003732     Total SCF correction =     0.000229

     Total XDM Dispersion Force =     0.005654

     XDM Dispersion forces acting on atoms:
     atom    1 type  2   force =    -0.00008285   -0.00079457    0.00009951
     atom    2 type  2   force =    -0.00008285    0.00079457    0.00009951
     atom    3 type  2   force =     0.00038568    0.00136007   -0.00116358
     atom    4 type  2   force =     0.00038568   -0.00136007   -0.00116358
     atom    5 type  1   force =     0.00070762    0.00044634    0.00040695
     atom    6 type  1   force =     0.00070762   -0.00044634    0.00040695
     atom    7 type  1   force =    -0.00063560    0.00011187    0.00013814
     atom    8 type  1   force =    -0.00063560   -0.00011187    0.00013814
     atom    9 type  1   force =    -0.00074306   -0.00010559   -0.00035130
     atom   10 type  1   force =    -0.00074306    0.00010559   -0.00035130
     atom   11 type  1   force =    -0.00054161    0.00020058   -0.00008269
     atom   12 type  1   force =    -0.00054161   -0.00020058   -0.00008269
     atom   13 type  1   force =     0.00109625    0.00028705    0.00043579
     atom   14 type  1   force =     0.00109625   -0.00028705    0.00043579
     atom   15 type  1   force =     0.00049200    0.00052629    0.00049399
     atom   16 type  1   force =     0.00049200   -0.00052629    0.00049399
     atom   17 type  1   force =     0.00047102    0.00032104    0.00043216
     atom   18 type  1   force =     0.00047102   -0.00032104    0.00043216
     atom   19 type  1   force =     0.00076786    0.00005837    0.00002142
     atom   20 type  1   force =     0.00076786   -0.00005837    0.00002142
     atom   21 type  1   force =     0.00056751    0.00023703    0.00019641
     atom   22 type  1   force =     0.00056751   -0.00023703    0.00019641
     atom   23 type  1   force =    -0.00076777    0.00046158    0.00005588
     atom   24 type  1   force =    -0.00076777   -0.00046158    0.00005588
     atom   25 type  1   force =    -0.00109807    0.00034531   -0.00012600
     atom   26 type  1   force =    -0.00109807   -0.00034531   -0.00012600
     atom   27 type  1   force =    -0.00061221    0.00053283    0.00004536
     atom   28 type  1   force =    -0.00061221   -0.00053283    0.00004536
     atom   29 type  4   force =     0.00043744   -0.00010740    0.00019993
     atom   30 type  4   force =     0.00043744    0.00010740    0.00019993
     atom   31 type  4   force =    -0.00004472    0.00045255    0.00015866
     atom   32 type  4   force =    -0.00004472   -0.00045255    0.00015866
     atom   33 type  4   force =     0.00000783   -0.00020493    0.00014101
     atom   34 type  4   force =     0.00000783    0.00020493    0.00014101
     atom   35 type  4   force =     0.00027849   -0.00011394   -0.00007797
     atom   36 type  4   force =     0.00027849    0.00011394   -0.00007797
     atom   37 type  4   force =    -0.00048152   -0.00004594   -0.00003155
     atom   38 type  4   force =    -0.00048152    0.00004594   -0.00003155
     atom   39 type  4   force =    -0.00003013    0.00043650   -0.00002106
     atom   40 type  4   force =    -0.00003013   -0.00043650   -0.00002106
     atom   41 type  4   force =    -0.00008496   -0.00026426    0.00021832
     atom   42 type  4   force =    -0.00008496    0.00026426    0.00021832
     atom   43 type  4   force =    -0.00032164   -0.00013230   -0.00021913
     atom   44 type  4   force =    -0.00032164    0.00013230   -0.00021913
     atom   45 type  3   force =     0.00023244    0.00086042   -0.00097024
     atom   46 type  3   force =     0.00023244   -0.00086042   -0.00097024


     entering subroutine stress ...

          total   stress  (Ry/bohr**3)                   (kbar)     P=    0.05
   0.00000202   0.00000000   0.00000095          0.30      0.00      0.14
   0.00000000   0.00000137   0.00000000          0.00      0.20      0.00
   0.00000095   0.00000000  -0.00000241          0.14      0.00     -0.35


     Writing output data file epxars_2.save
 
     init_run     :     34.41s CPU     35.78s WALL (       2 calls)
     electrons    :   1762.45s CPU   2276.93s WALL (       3 calls)
     update_pot   :     17.10s CPU     17.22s WALL (       1 calls)
     forces       :     45.15s CPU     46.46s WALL (       3 calls)
     stress       :     82.35s CPU     87.77s WALL (       3 calls)

     Called by init_run:
     wfcinit      :      7.63s CPU      7.98s WALL (       2 calls)
     potinit      :     10.73s CPU     10.91s WALL (       2 calls)

     Called by electrons:
     c_bands      :    911.07s CPU   1330.17s WALL (     108 calls)
     sum_band     :    438.14s CPU    501.27s WALL (     108 calls)
     v_of_rho     :     40.71s CPU     44.06s WALL (     110 calls)
     newd         :    110.38s CPU    122.29s WALL (     110 calls)
     mix_rho      :     26.88s CPU     28.59s WALL (     108 calls)

     Called by c_bands:
     init_us_2    :      4.58s CPU      4.81s WALL (     448 calls)
     cegterg      :    897.98s CPU   1009.56s WALL (     216 calls)

     Called by *egterg:
     h_psi        :    532.15s CPU    601.45s WALL (    1003 calls)
     s_psi        :     84.74s CPU     84.78s WALL (    1003 calls)
     g_psi        :      3.94s CPU      3.95s WALL (     783 calls)
     cdiaghg      :     79.46s CPU     79.71s WALL (     995 calls)

     Called by h_psi:
     add_vuspsi   :     85.08s CPU     85.12s WALL (    1003 calls)

     General routines
     calbec       :    124.64s CPU    143.41s WALL (    1231 calls)
     fft          :     26.48s CPU     41.71s WALL (    3262 calls)
     ffts         :      1.50s CPU      1.72s WALL (     436 calls)
     fftw         :    584.79s CPU    687.24s WALL (  238490 calls)
     interpolate  :      5.28s CPU      5.77s WALL (     436 calls)
     davcio       :      0.01s CPU    308.19s WALL (     664 calls)
 
     Parallel routines
     fft_scatter  :    103.62s CPU    219.01s WALL (  242188 calls)
 
     PAW routines
     PAW_pot      :     30.32s CPU     31.15s WALL (     110 calls)
     PAW_ddot     :     19.78s CPU     20.72s WALL (    3964 calls)
     PAW_symme    :      0.02s CPU      0.05s WALL (     217 calls)
 
     PWSCF        : 32m23.86s CPU    41m 7.20s WALL

 
   This run was terminated on:   2:16:51  19Oct2012            

=------------------------------------------------------------------------------=
   JOB DONE.
=------------------------------------------------------------------------------=
