
     Program PWSCF v.4.3.2      starts on 25Oct2012 at 12:11:41 

     This program is part of the open-source Quantum ESPRESSO suite
     for quantum simulation of materials; please cite
         "P. Giannozzi et al., J. Phys.:Condens. Matter 21 395502 (2009);
          URL http://www.quantum-espresso.org", 
     in publications or presentations arising from this work. More details at
     http://www.quantum-espresso.org/wiki/index.php/Citing_Quantum-ESPRESSO

     Parallel version (MPI), running on    12 processors
     R & G space division:  proc/pool =   12

     Current dimensions of program PWSCF are:
     Max number of different atomic species (ntypx) = 10
     Max number of k-points (npk) =  40000
     Max angular momentum in pseudopotentials (lmaxx) =  3
     Waiting for input...
     Reading input from stdin
               file c.UPF: wavefunction(s)  2P renormalized
               file f.UPF: wavefunction(s)  2S 2P renormalized
               file o.UPF: wavefunction(s)  2P renormalized

     Subspace diagonalization in iterative solution of the eigenvalue problem:
     a serial algorithm will be used

 
     Parallelization info
     --------------------
     sticks:   dense  smooth     PW     G-vecs:    dense   smooth      PW
     Min        2309    1540    407                84405    45951    6255
     Max        2310    1541    408                84406    45971    6256
     Sum       27715   18491   4885              1012869   551527   75067
 

     Title: 
     fepxas                                                                     


     bravais-lattice index     =            0
     lattice parameter (alat)  =       1.0000  a.u.
     unit-cell volume          =    8780.1640 (a.u.)^3
     number of atoms/cell      =           92
     number of atomic types    =            4
     number of electrons       =       480.00
     number of Kohn-Sham states=          240
     kinetic-energy cutoff     =      60.0000  Ry
     charge density cutoff     =     360.0000  Ry
     convergence threshold     =      1.0E-07
     mixing beta               =       0.7000
     number of iterations used =            8  plain     mixing
     Exchange-correlation      =  NOX  PW   PW86 PBC ( 0 417 4 0)
     EXX-fraction              =        0.00
     nstep                     =           50


     celldm(1)=   1.000000  celldm(2)=   0.000000  celldm(3)=   0.000000
     celldm(4)=   0.000000  celldm(5)=   0.000000  celldm(6)=   0.000000

     crystal axes: (cart. coord. in units of alat)
               a(1) = (  27.363461  -0.022906  -1.048193 )  
               a(2) = (  -0.034864  35.350177  -0.070575 )  
               a(3) = (  -0.278536  -0.018093   9.087665 )  

     reciprocal axes: (cart. coord. in units 2 pi/alat)
               b(1) = (  0.036588  0.000038  0.001121 )  
               b(2) = (  0.000026  0.028289  0.000057 )  
               b(3) = (  0.004220  0.000224  0.110169 )  


     PseudoPot. # 1 for  C read from file:
     ./c.UPF
     MD5 check sum: 59d3a4af416b94ce846c69cefa103580
     Pseudo is Projector augmented-wave + core cor, Zval =  4.0
     Generated using "atomic" code by A. Dal Corso  (Quantum ESPRESSO distribution)
     Shape of augmentation charge: BESSEL
     Using radial grid of 1073 points,  4 beta functions with: 
                l(1) =   0
                l(2) =   0
                l(3) =   1
                l(4) =   1
     Q(r) pseudized with 0 coefficients 


     PseudoPot. # 2 for  F read from file:
     ./f.UPF
     MD5 check sum: 8cc698429acbef515959d6d1ea0e1135
     Pseudo is Projector augmented-wave + core cor, Zval =  7.0
     Generated using "atomic" code by A. Dal Corso  (Quantum ESPRESSO distribution)
     Shape of augmentation charge: PSQ
     Using radial grid of 1105 points,  4 beta functions with: 
                l(1) =   0
                l(2) =   0
                l(3) =   1
                l(4) =   1
     Q(r) pseudized with 0 coefficients 


     PseudoPot. # 3 for  O read from file:
     ./o.UPF
     MD5 check sum: 7b405463629fa2aaa019ec68516902cf
     Pseudo is Projector augmented-wave + core cor, Zval =  6.0
     Generated using "atomic" code by A. Dal Corso  (Quantum ESPRESSO distribution)
     Shape of augmentation charge: BESSEL
     Using radial grid of 1095 points,  4 beta functions with: 
                l(1) =   0
                l(2) =   0
                l(3) =   1
                l(4) =   1
     Q(r) pseudized with 0 coefficients 


     PseudoPot. # 4 for As read from file:
     ./as.UPF
     MD5 check sum: c4211a47c95e243bf5c6b176bad74a68
     Pseudo is Projector augmented-wave + core cor, Zval =  5.0
     Generated using "atomic" code by A. Dal Corso  (Quantum ESPRESSO distribution)
     Shape of augmentation charge: PSQ
     Using radial grid of 1209 points,  4 beta functions with: 
                l(1) =   0
                l(2) =   0
                l(3) =   1
                l(4) =   1
     Q(r) pseudized with 0 coefficients 


     atomic species   valence    mass     pseudopotential
        c              4.00    12.01070      C( 1.00)
        f              7.00    18.99840      F( 1.00)
        o              6.00    15.99940      O( 1.00)
        as             5.00    74.92160     As( 1.00)

      2 Sym.Ops. (with inversion)


   Cartesian axes

     site n.     atom                  positions (alat units)
         1           c   tau(   1) = (  13.1241754  29.7352907   7.3280026  )
         2           c   tau(   2) = (  27.4429358  12.0679523   4.6257380  )
         3           c   tau(   3) = (  13.9258859   5.5738873   0.6408950  )
         4           c   tau(   4) = (  -0.3928745  23.2412257   3.3431596  )
         5           c   tau(   5) = (  14.1562826  31.3776881   5.5314803  )
         6           c   tau(   6) = (  26.4108749  13.6912358   6.4390918  )
         7           c   tau(   7) = (  12.8937787   3.9314899   2.4374173  )
         8           c   tau(   8) = (   0.6391863  21.6179422   1.5298058  )
         9           c   tau(   9) = (  14.7058686  28.0642001   8.6175295  )
        10           c   tau(  10) = (  25.8637888  10.4024924   3.3275597  )
        11           c   tau(  11) = (  12.3441927   7.2449779  -0.6486319  )
        12           c   tau(  12) = (   1.1862725  24.9066856   4.6413379  )
        13           c   tau(  13) = (  22.4179011   3.5627763   7.3055818  )
        14           c   tau(  14) = (  18.2644432  21.2366504   4.6896654  )
        15           c   tau(  15) = (   4.6321602  31.7464017   0.6633158  )
        16           c   tau(  16) = (   8.7856180  14.0725277   3.2792322  )
        17           c   tau(  17) = (  20.8049214   2.5160681   5.4996980  )
        18           c   tau(  18) = (  19.8494601  20.1860596   6.5178886  )
        19           c   tau(  19) = (   6.2451398  32.7931100   2.4691996  )
        20           c   tau(  20) = (   7.2006012  15.1231184   1.4510090  )
        21           c   tau(  21) = (  16.7283502  31.4096107   5.0753960  )
        22           c   tau(  22) = (  23.8387719  13.7213358   6.8932980  )
        23           c   tau(  23) = (  10.3217110   3.8995674   2.8935016  )
        24           c   tau(  24) = (   3.2112894  21.5878423   1.0755996  )
        25           c   tau(  25) = (  23.8874516   1.9813909   8.8089666  )
        26           c   tau(  26) = (  16.7729569  19.6612771   3.2014971  )
        27           c   tau(  27) = (   3.1626097  33.3277872  -0.8400690  )
        28           c   tau(  28) = (  10.2771043  15.6479009   4.7674005  )
        29           c   tau(  29) = (  17.2972800  28.0701557   8.1185537  )
        30           c   tau(  30) = (  23.2716753  10.4071591   3.8243037  )
        31           c   tau(  31) = (   9.7527812   7.2390223  -0.1496560  )
        32           c   tau(  32) = (   3.7783860  24.9020190   4.1445939  )
        33           c   tau(  33) = (  20.6860930  -0.0699098   5.1657088  )
        34           c   tau(  34) = (  19.9359780  17.6007394   6.8692123  )
        35           c   tau(  35) = (   6.3639682  35.3790878   2.8031888  )
        36           c   tau(  36) = (   7.1140832  17.7084386   1.0996853  )
        37           c   tau(  37) = (  18.3027327  29.7640659   6.4077052  )
        38           c   tau(  38) = (  22.2641945  12.0877344   5.5473100  )
        39           c   tau(  39) = (   8.7473286   5.5451121   1.5611924  )
        40           c   tau(  40) = (   4.7858668  23.2214437   2.4215876  )
        41           c   tau(  41) = (  23.8070645  -0.6302746   8.4193736  )
        42           c   tau(  42) = (  16.8153193  17.0530864   3.6124549  )
        43           c   tau(  43) = (   3.2429968  35.9394527  -0.4504760  )
        44           c   tau(  44) = (  10.2347419  18.2560917   4.3564427  )
        45           c   tau(  45) = (  22.1856154  33.6906342   6.5458224  )
        46           c   tau(  46) = (  18.3908281  16.0180846   5.4214693  )
        47           c   tau(  47) = (   4.8644458   1.6185439   1.4230752  )
        48           c   tau(  48) = (   8.6592331  19.2910934   2.5474283  )
        49           as  tau(  49) = (  18.5677422  33.5007915   2.4649159  )
        50           as  tau(  50) = (  22.2801204  15.8277362   0.4173981  )
        51           as  tau(  51) = (   8.4823190   1.8083865   5.5039817  )
        52           as  tau(  52) = (   4.7699408  19.4814419   7.5514995  )
        53           as  tau(  53) = (  21.9993426  30.0063421   5.5782079  )
        54           as  tau(  54) = (  18.5665292  12.3314211   6.3769629  )
        55           as  tau(  55) = (   5.0507187   5.3028359   2.3906897  )
        56           as  tau(  56) = (   8.4835320  22.9777569   1.5919347  )
        57           f   tau(  57) = (  10.6196594  29.7012025   7.8117056  )
        58           f   tau(  58) = (  29.9450561  12.0486731   4.1285524  )
        59           f   tau(  59) = (  16.4304019   5.6079755   0.1571920  )
        60           f   tau(  60) = (  -2.8949949  23.2605050   3.8403452  )
        61           f   tau(  61) = (  12.5525597  32.9195395   4.2182505  )
        62           f   tau(  62) = (  28.0112494  15.2217539   7.7685027  )
        63           f   tau(  63) = (  14.4975016   2.3896385   3.7506471  )
        64           f   tau(  64) = (  -0.9611882  20.0874242   0.2003949  )
        65           f   tau(  65) = (  22.6167340   6.0881134   7.5434535  )
        66           f   tau(  66) = (  18.1104393  23.7611487   4.4112800  )
        67           f   tau(  67) = (   4.4333272  29.2210646   0.4254441  )
        68           f   tau(  68) = (   8.9396220  11.5480294   3.5576176  )
        69           f   tau(  69) = (  13.9845058  26.4586459   1.2271840  )
        70           f   tau(  70) = (  26.8685290   8.7860192   1.6263897  )
        71           f   tau(  71) = (  13.0655555   8.8505322   6.7417136  )
        72           f   tau(  72) = (   0.1815323  26.5231588   6.3425079  )
        73           f   tau(  73) = (  19.4255142   4.1202694   4.0523875  )
        74           f   tau(  74) = (  21.2324427  21.7859785   7.9658236  )
        75           f   tau(  75) = (   7.6245470  31.1889086   3.9165101  )
        76           f   tau(  76) = (   5.8176186  13.5231996   0.0030740  )
        77           f   tau(  77) = (  25.7265565   3.0080099   1.4747279  )
        78           f   tau(  78) = (  15.2298690  20.6773617   1.4379307  )
        79           f   tau(  79) = (   1.3235048  32.3011681   6.4941697  )
        80           f   tau(  80) = (  11.8201922  14.6318164   6.5309669  )
        81           f   tau(  81) = (  19.0595011  26.4111648   0.2597642  )
        82           f   tau(  82) = (  21.7870585   8.7433575   2.5790478  )
        83           f   tau(  83) = (   7.9905601   8.8980132   7.7091334  )
        84           f   tau(  84) = (   5.2630028  26.5658206   5.3898499  )
        85           f   tau(  85) = (  25.6201942  33.2803930   0.6841269  )
        86           f   tau(  86) = (  15.2265148  15.6063034   2.1996885  )
        87           f   tau(  87) = (   1.4298670   2.0287851   7.2847708  )
        88           f   tau(  88) = (  11.8235465  19.7028747   5.7692091  )
        89           o   tau(  89) = (  21.0591503  31.0028260   2.3201210  )
        90           o   tau(  90) = (  19.7823106  13.3353971   0.5504959  )
        91           o   tau(  91) = (   5.9909110   4.3063520   5.6487766  )
        92           o   tau(  92) = (   7.2677507  21.9737810   7.4184017  )

     number of k points=     1
                       cart. coord. in units 2pi/alat
        k(    1) = (  -0.0172519  -0.0141074   0.0269530), wk =   2.0000000

     Dense  grid:  1012869 G-vectors     FFT dimensions: ( 180, 216,  60)

     Smooth grid:   551527 G-vectors     FFT dimensions: ( 135, 180,  45)

     Largest allocated arrays     est. size (Mb)     dimensions
        Kohn-Sham Wavefunctions        20.94 Mb     (   5719,  240)
        NL pseudopotentials            64.23 Mb     (   5719,  736)
        Each V/rho on FFT grid          2.97 Mb     ( 194400)
        Each G-vector array             0.64 Mb     (  84406)
        G-vector shells                 0.64 Mb     (  84406)
     Largest temporary arrays     est. size (Mb)     dimensions
        Auxiliary wavefunctions        83.77 Mb     (   5719,  960)
        Each subspace H/S matrix       14.06 Mb     ( 960, 960)
        Each <psi_i|beta_j> matrix      2.70 Mb     (    736,  240)
        Arrays for rho mixing          23.73 Mb     ( 194400,   8)

     Check: negative/imaginary core charge=   -0.000035    0.000000

     Initial potential from superposition of free atoms

     starting charge  479.99619, renormalised to  480.00000
     Starting wfc are  368 atomic wfcs
     Checking if some PAW data can be deallocated... 

     total cpu time spent up to now is       44.4 secs

     per-process dynamical memory:   192.3 Mb

     Self-consistent Calculation

     iteration #  1     ecut=    60.00 Ry     beta=0.70
     Davidson diagonalization with overlap
     ethr =  1.00E-02,  avg # of iterations =  3.0

     total cpu time spent up to now is      100.3 secs

     total energy              =   -4377.42771883 Ry
     Harris-Foulkes estimate   =   -4384.65835736 Ry
     estimated scf accuracy    <    3309.48254479 Ry

     iteration #  2     ecut=    60.00 Ry     beta=0.70
     Davidson diagonalization with overlap
     ethr =  1.00E-02,  avg # of iterations =  4.0

     total cpu time spent up to now is      148.4 secs

     total energy              =   -4376.16685436 Ry
     Harris-Foulkes estimate   =   -4382.17923726 Ry
     estimated scf accuracy    <     350.79050126 Ry

     iteration #  3     ecut=    60.00 Ry     beta=0.70
     Davidson diagonalization with overlap
     ethr =  1.00E-02,  avg # of iterations =  5.0

     total cpu time spent up to now is      200.0 secs

     total energy              =   -4377.03848217 Ry
     Harris-Foulkes estimate   =   -4391.23306966 Ry
     estimated scf accuracy    <      70.45731096 Ry

     iteration #  4     ecut=    60.00 Ry     beta=0.70
     Davidson diagonalization with overlap
     ethr =  1.00E-02,  avg # of iterations =  3.0

     total cpu time spent up to now is      246.4 secs

     total energy              =   -4380.01783640 Ry
     Harris-Foulkes estimate   =   -4380.96389314 Ry
     estimated scf accuracy    <       2.88023647 Ry

     iteration #  5     ecut=    60.00 Ry     beta=0.70
     Davidson diagonalization with overlap
     ethr =  6.00E-04,  avg # of iterations =  6.0

     total cpu time spent up to now is      302.0 secs

     total energy              =   -4381.22363311 Ry
     Harris-Foulkes estimate   =   -4381.78418541 Ry
     estimated scf accuracy    <       2.83994791 Ry

     iteration #  6     ecut=    60.00 Ry     beta=0.70
     Davidson diagonalization with overlap
     ethr =  5.92E-04,  avg # of iterations =  4.0

     total cpu time spent up to now is      348.5 secs

     total energy              =   -4381.33991718 Ry
     Harris-Foulkes estimate   =   -4381.38897996 Ry
     estimated scf accuracy    <       0.29727189 Ry

     iteration #  7     ecut=    60.00 Ry     beta=0.70
     Davidson diagonalization with overlap
     ethr =  6.19E-05,  avg # of iterations =  5.0

     total cpu time spent up to now is      409.5 secs

     total energy              =   -4381.45790222 Ry
     Harris-Foulkes estimate   =   -4381.54548488 Ry
     estimated scf accuracy    <       0.38021860 Ry

     iteration #  8     ecut=    60.00 Ry     beta=0.70
     Davidson diagonalization with overlap
     ethr =  6.19E-05,  avg # of iterations =  4.0

     total cpu time spent up to now is      455.7 secs

     total energy              =   -4381.43811662 Ry
     Harris-Foulkes estimate   =   -4381.47078056 Ry
     estimated scf accuracy    <       0.19949280 Ry

     iteration #  9     ecut=    60.00 Ry     beta=0.70
     Davidson diagonalization with overlap
     ethr =  4.16E-05,  avg # of iterations =  6.0

     total cpu time spent up to now is      506.8 secs

     total energy              =   -4381.47732970 Ry
     Harris-Foulkes estimate   =   -4381.48214688 Ry
     estimated scf accuracy    <       0.02781045 Ry

     iteration # 10     ecut=    60.00 Ry     beta=0.70
     Davidson diagonalization with overlap
     ethr =  5.79E-06,  avg # of iterations =  5.0

     total cpu time spent up to now is      568.6 secs

     total energy              =   -4381.48584740 Ry
     Harris-Foulkes estimate   =   -4381.48835527 Ry
     estimated scf accuracy    <       0.04337088 Ry

     iteration # 11     ecut=    60.00 Ry     beta=0.70
     Davidson diagonalization with overlap
     ethr =  5.79E-06,  avg # of iterations =  1.0

     total cpu time spent up to now is      612.2 secs

     total energy              =   -4381.47887701 Ry
     Harris-Foulkes estimate   =   -4381.48614896 Ry
     estimated scf accuracy    <       0.03569215 Ry

     iteration # 12     ecut=    60.00 Ry     beta=0.70
     Davidson diagonalization with overlap
     ethr =  5.79E-06,  avg # of iterations =  6.0

     total cpu time spent up to now is      660.8 secs

     total energy              =   -4381.48091311 Ry
     Harris-Foulkes estimate   =   -4381.48220423 Ry
     estimated scf accuracy    <       0.01369526 Ry

     iteration # 13     ecut=    60.00 Ry     beta=0.70
     Davidson diagonalization with overlap
     ethr =  2.85E-06,  avg # of iterations =  4.0

     total cpu time spent up to now is      707.0 secs

     total energy              =   -4381.47936481 Ry
     Harris-Foulkes estimate   =   -4381.48165540 Ry
     estimated scf accuracy    <       0.01036032 Ry

     iteration # 14     ecut=    60.00 Ry     beta=0.70
     Davidson diagonalization with overlap
     ethr =  2.16E-06,  avg # of iterations =  6.0

     total cpu time spent up to now is      755.8 secs

     total energy              =   -4381.48026736 Ry
     Harris-Foulkes estimate   =   -4381.48055942 Ry
     estimated scf accuracy    <       0.00182901 Ry

     iteration # 15     ecut=    60.00 Ry     beta=0.70
     Davidson diagonalization with overlap
     ethr =  3.81E-07,  avg # of iterations =  5.0

     total cpu time spent up to now is      817.1 secs

     total energy              =   -4381.48097364 Ry
     Harris-Foulkes estimate   =   -4381.48113029 Ry
     estimated scf accuracy    <       0.00098711 Ry

     iteration # 16     ecut=    60.00 Ry     beta=0.70
     Davidson diagonalization with overlap
     ethr =  2.06E-07,  avg # of iterations =  2.0

     total cpu time spent up to now is      861.4 secs

     total energy              =   -4381.48090856 Ry
     Harris-Foulkes estimate   =   -4381.48099379 Ry
     estimated scf accuracy    <       0.00044654 Ry

     iteration # 17     ecut=    60.00 Ry     beta=0.70
     Davidson diagonalization with overlap
     ethr =  9.30E-08,  avg # of iterations =  5.0

     total cpu time spent up to now is      915.1 secs

     total energy              =   -4381.48101768 Ry
     Harris-Foulkes estimate   =   -4381.48106506 Ry
     estimated scf accuracy    <       0.00037941 Ry

     iteration # 18     ecut=    60.00 Ry     beta=0.70
     Davidson diagonalization with overlap
     ethr =  7.90E-08,  avg # of iterations =  4.0

     total cpu time spent up to now is      961.3 secs

     total energy              =   -4381.48099884 Ry
     Harris-Foulkes estimate   =   -4381.48103426 Ry
     estimated scf accuracy    <       0.00041655 Ry

     iteration # 19     ecut=    60.00 Ry     beta=0.70
     Davidson diagonalization with overlap
     ethr =  7.90E-08,  avg # of iterations =  5.0

     total cpu time spent up to now is     1009.6 secs

     total energy              =   -4381.48098358 Ry
     Harris-Foulkes estimate   =   -4381.48103217 Ry
     estimated scf accuracy    <       0.00024368 Ry

     iteration # 20     ecut=    60.00 Ry     beta=0.70
     Davidson diagonalization with overlap
     ethr =  5.08E-08,  avg # of iterations =  5.0

     total cpu time spent up to now is     1056.4 secs

     total energy              =   -4381.48097306 Ry
     Harris-Foulkes estimate   =   -4381.48099588 Ry
     estimated scf accuracy    <       0.00008427 Ry

     iteration # 21     ecut=    60.00 Ry     beta=0.70
     Davidson diagonalization with overlap
     ethr =  1.76E-08,  avg # of iterations =  5.0

     total cpu time spent up to now is     1113.9 secs

     total energy              =   -4381.48099988 Ry
     Harris-Foulkes estimate   =   -4381.48101048 Ry
     estimated scf accuracy    <       0.00005125 Ry

     iteration # 22     ecut=    60.00 Ry     beta=0.70
     Davidson diagonalization with overlap
     ethr =  1.07E-08,  avg # of iterations =  1.0

     total cpu time spent up to now is     1157.5 secs

     total energy              =   -4381.48099219 Ry
     Harris-Foulkes estimate   =   -4381.48100063 Ry
     estimated scf accuracy    <       0.00002825 Ry

     iteration # 23     ecut=    60.00 Ry     beta=0.70
     Davidson diagonalization with overlap
     ethr =  5.89E-09,  avg # of iterations =  5.0

     total cpu time spent up to now is     1217.6 secs

     total energy              =   -4381.48100919 Ry
     Harris-Foulkes estimate   =   -4381.48100942 Ry
     estimated scf accuracy    <       0.00004200 Ry

     iteration # 24     ecut=    60.00 Ry     beta=0.70
     Davidson diagonalization with overlap
     ethr =  5.89E-09,  avg # of iterations =  1.0

     total cpu time spent up to now is     1261.4 secs

     total energy              =   -4381.48100316 Ry
     Harris-Foulkes estimate   =   -4381.48100939 Ry
     estimated scf accuracy    <       0.00004358 Ry

     iteration # 25     ecut=    60.00 Ry     beta=0.70
     Davidson diagonalization with overlap
     ethr =  5.89E-09,  avg # of iterations =  6.0

     total cpu time spent up to now is     1310.2 secs

     total energy              =   -4381.48100302 Ry
     Harris-Foulkes estimate   =   -4381.48100578 Ry
     estimated scf accuracy    <       0.00002258 Ry

     iteration # 26     ecut=    60.00 Ry     beta=0.70
     Davidson diagonalization with overlap
     ethr =  4.70E-09,  avg # of iterations =  1.0

     total cpu time spent up to now is     1353.9 secs

     total energy              =   -4381.48100157 Ry
     Harris-Foulkes estimate   =   -4381.48100330 Ry
     estimated scf accuracy    <       0.00001573 Ry

     iteration # 27     ecut=    60.00 Ry     beta=0.70
     Davidson diagonalization with overlap
     ethr =  3.28E-09,  avg # of iterations =  6.0

     total cpu time spent up to now is     1401.4 secs

     total energy              =   -4381.48100169 Ry
     Harris-Foulkes estimate   =   -4381.48100229 Ry
     estimated scf accuracy    <       0.00000642 Ry

     iteration # 28     ecut=    60.00 Ry     beta=0.70
     Davidson diagonalization with overlap
     ethr =  1.34E-09,  avg # of iterations =  7.0

     total cpu time spent up to now is     1451.0 secs

     total energy              =   -4381.48100210 Ry
     Harris-Foulkes estimate   =   -4381.48100234 Ry
     estimated scf accuracy    <       0.00000214 Ry

     iteration # 29     ecut=    60.00 Ry     beta=0.70
     Davidson diagonalization with overlap
     ethr =  4.45E-10,  avg # of iterations =  5.0

     total cpu time spent up to now is     1505.3 secs

     total energy              =   -4381.48100256 Ry
     Harris-Foulkes estimate   =   -4381.48100263 Ry
     estimated scf accuracy    <       0.00000024 Ry

     iteration # 30     ecut=    60.00 Ry     beta=0.70
     Davidson diagonalization with overlap
     ethr =  4.93E-11,  avg # of iterations =  5.0

     total cpu time spent up to now is     1569.1 secs

     total energy              =   -4381.48100265 Ry
     Harris-Foulkes estimate   =   -4381.48100271 Ry
     estimated scf accuracy    <       0.00000050 Ry

     iteration # 31     ecut=    60.00 Ry     beta=0.70
     Davidson diagonalization with overlap
     ethr =  4.93E-11,  avg # of iterations =  2.0

     total cpu time spent up to now is     1613.7 secs

     total energy              =   -4381.48100262 Ry
     Harris-Foulkes estimate   =   -4381.48100265 Ry
     estimated scf accuracy    <       0.00000031 Ry

     iteration # 32     ecut=    60.00 Ry     beta=0.70
     Davidson diagonalization with overlap
     ethr =  4.93E-11,  avg # of iterations =  6.0

     total cpu time spent up to now is     1664.8 secs

     total energy              =   -4381.48100263 Ry
     Harris-Foulkes estimate   =   -4381.48100267 Ry
     estimated scf accuracy    <       0.00000023 Ry

     iteration # 33     ecut=    60.00 Ry     beta=0.70
     Davidson diagonalization with overlap
     ethr =  4.71E-11,  avg # of iterations =  2.0

     total cpu time spent up to now is     1709.2 secs

     total energy              =   -4381.48100260 Ry
     Harris-Foulkes estimate   =   -4381.48100264 Ry
     estimated scf accuracy    <       0.00000016 Ry

     iteration # 34     ecut=    60.00 Ry     beta=0.70
     Davidson diagonalization with overlap
     ethr =  3.27E-11,  avg # of iterations =  6.0

     total cpu time spent up to now is     1760.5 secs

     End of self-consistent calculation

          k =-0.0173-0.0141 0.0270 ( 68882 PWs)   bands (ev):

   -23.9992 -23.9977 -23.9873 -23.9851 -23.9567 -23.9537 -23.9305 -23.9285
   -23.7386 -23.7345 -23.7180 -23.7142 -23.6858 -23.6808 -23.6539 -23.6494
   -23.5075 -23.5042 -23.4635 -23.4600 -23.3914 -23.3849 -23.3780 -23.3748
   -23.3444 -23.3437 -23.3397 -23.3378 -23.3109 -23.3081 -23.2960 -23.2924
   -16.6305 -16.6303 -16.6291 -16.6289 -14.7187 -14.7182 -14.7152 -14.7147
   -14.6599 -14.6559 -14.6428 -14.6395 -12.0197 -12.0165 -12.0132 -12.0104
   -11.7169 -11.7122 -11.7063 -11.7018 -11.6246 -11.6199 -11.6154 -11.6104
   -11.5809 -11.5789 -11.5629 -11.5598  -9.6005  -9.5982  -9.5778  -9.5766
    -8.9801  -8.9773  -8.9694  -8.9653  -8.5492  -8.5454  -8.5362  -8.5314
    -8.5117  -8.5102  -8.4839  -8.4808  -7.7317  -7.7290  -7.7069  -7.7030
    -7.5558  -7.5516  -7.5226  -7.5199  -6.8977  -6.8946  -6.8714  -6.8664
    -6.5991  -6.5960  -6.5605  -6.5581  -6.3491  -6.3460  -6.3261  -6.3221
    -6.2605  -6.2579  -6.2303  -6.2251  -6.1772  -6.1736  -6.1383  -6.1363
    -6.0352  -6.0333  -5.9960  -5.9929  -5.6897  -5.6887  -5.6288  -5.6260
    -5.6062  -5.6026  -5.5067  -5.5034  -5.1619  -5.1525  -5.0426  -5.0383
    -4.9774  -4.9726  -4.9148  -4.9124  -4.8630  -4.8578  -4.7792  -4.7770
    -4.7482  -4.7457  -4.7017  -4.6975  -4.2342  -4.2330  -4.1219  -4.1201
    -4.0354  -4.0332  -3.8523  -3.8493  -3.7914  -3.7732  -3.6946  -3.6915
    -3.6704  -3.6642  -3.5331  -3.5300  -3.4109  -3.4042  -3.3778  -3.3747
    -3.3354  -3.3291  -3.2193  -3.2175  -3.0363  -3.0320  -2.9598  -2.9557
    -2.8881  -2.8851  -2.8550  -2.8480  -2.7578  -2.7538  -2.7242  -2.7189
    -2.5899  -2.5831  -2.5595  -2.5576  -2.5321  -2.5258  -2.4906  -2.4853
    -2.4285  -2.4246  -2.3047  -2.3005  -2.1088  -2.1069  -2.0442  -2.0405
    -1.9984  -1.9959  -1.9455  -1.9391  -1.7884  -1.7863  -1.7582  -1.7555
    -1.6838  -1.6833  -1.5763  -1.5737  -1.5280  -1.5250  -1.4338  -1.4286
    -1.0948  -1.0918  -1.0673  -1.0654  -0.8516  -0.8493  -0.8368  -0.8354
    -0.6232  -0.6190  -0.5929  -0.5896  -0.1393  -0.1341  -0.1141  -0.1104
     0.4071   0.4130   0.4344   0.4393   0.7749   0.7761   0.8265   0.8270
     0.9251   0.9267   0.9865   0.9880   1.1919   1.1982   1.2143   1.2216
     1.2640   1.2689   1.3069   1.3081   1.3180   1.3194   1.3658   1.3699
 TIME (initial):        0.0
* Atoms contributing density to the main cell
  Number of atoms:   28980
 
 TIME (set up the environment):        0.1
 DOCALC: T F T T
 ESAVE:       0.000000000000       0.000000000000       0.000000000000
* XDM: using PAW all-electron density reconstruction? T
 TIME (promolecular grid):       50.7
 TIME (calculation of b grid):       54.8
 TIME (calculation of volumes and moments):      368.6
 
+ Volume and moments
# All results in atomic units.
# i              V                  Vfree                 M1                  M2                  M3
  1        33.6578928021        39.0349749523         3.8824418503        54.2167595039      1084.2737946754
  2        33.6641601078        39.0349749523         3.8803874036        54.1679381883      1082.9719104062
  3        33.6578928021        39.0349749523         3.8824418503        54.2167595039      1084.2737946754
  4        33.6641601078        39.0349749523         3.8803874036        54.1679381883      1082.9719104062
  5        33.8949839825        39.0349749523         3.8809685972        53.8821401376      1061.6319230579
  6        33.9004600676        39.0349749523         3.8785196783        53.8301168763      1060.2840135718
  7        33.8949839825        39.0349749523         3.8809685972        53.8821401376      1061.6319230579
  8        33.9004600676        39.0349749523         3.8785196783        53.8301168763      1060.2840135718
  9        33.6931059887        39.0349749523         3.8423327452        53.4305575476      1066.7360000255
 10        33.7074993365        39.0349749523         3.8411548770        53.4032138973      1065.9437397594
 11        33.6931059887        39.0349749523         3.8423327452        53.4305575476      1066.7360000255
 12        33.7074993365        39.0349749523         3.8411548770        53.4032138973      1065.9437397594
 13        33.8313619538        39.0349749523         3.8483937368        53.5497599242      1070.1018486613
 14        33.8441064269        39.0349749523         3.8476502160        53.5512341918      1070.3894168144
 15        33.8313619538        39.0349749523         3.8483937368        53.5497599242      1070.1018486613
 16        33.8441064269        39.0349749523         3.8476502160        53.5512341918      1070.3894168144
 17        34.0400339086        39.0349749523         3.8570194380        53.6504859830      1059.9235361924
 18        34.0602275303        39.0349749523         3.8556056153        53.6247338642      1059.4925455947
 19        34.0400339086        39.0349749523         3.8570194380        53.6504859830      1059.9235361924
 20        34.0602275303        39.0349749523         3.8556056153        53.6247338642      1059.4925455947
 21        34.2744342312        39.0349749523         3.8099585800        50.7570253365       987.0316270432
 22        34.2776140884        39.0349749523         3.8066528867        50.7095909052       986.1047203664
 23        34.2744342312        39.0349749523         3.8099585800        50.7570253365       987.0316270431
 24        34.2776140884        39.0349749523         3.8066528867        50.7095909052       986.1047203664
 25        34.0008238990        39.0349749523         3.8096432169        52.9156456750      1053.5205722031
 26        34.0027500987        39.0349749523         3.8094909007        52.9304516274      1054.0765594698
 27        34.0008238990        39.0349749523         3.8096432169        52.9156456750      1053.5205722031
 28        34.0027500987        39.0349749523         3.8094909007        52.9304516274      1054.0765594698
 29        34.1950426508        39.0349749523         3.7686265749        52.4271462598      1041.4551522232
 30        34.2025663573        39.0349749523         3.7674568187        52.4099584399      1041.0053770140
 31        34.1950426508        39.0349749523         3.7686265749        52.4271462598      1041.4551522232
 32        34.2025663573        39.0349749523         3.7674568187        52.4099584399      1041.0053770140
 33        34.2788028776        39.0349749523         3.7951780099        50.5905166224       985.7355821354
 34        34.2900274753        39.0349749523         3.7931711014        50.5559021660       984.9805746465
 35        34.2788028776        39.0349749523         3.7951780099        50.5905166224       985.7355821354
 36        34.2900274753        39.0349749523         3.7931711014        50.5559021660       984.9805746465
 37        34.3759302904        39.0349749523         3.7245234099        49.8439547218       983.5266537453
 38        34.3762898543        39.0349749523         3.7248421645        49.8347533443       983.0721283260
 39        34.3759302904        39.0349749523         3.7245234099        49.8439547218       983.5266537453
 40        34.3762898543        39.0349749523         3.7248421645        49.8347533443       983.0721283260
 41        34.2607388952        39.0349749523         3.7676315039        52.1312349751      1029.2865311309
 42        34.2618415826        39.0349749523         3.7678046940        52.1579455075      1030.1394338403
 43        34.2607388952        39.0349749523         3.7676315039        52.1312349751      1029.2865311309
 44        34.2618415826        39.0349749523         3.7678046940        52.1579455075      1030.1394338403
 45        34.4030691843        39.0349749523         3.7542576978        50.0918188295       980.6200499898
 46        34.4026170994        39.0349749523         3.7532160922        50.0785801866       980.5954118719
 47        34.4030691843        39.0349749523         3.7542576978        50.0918188295       980.6200499898
 48        34.4026170994        39.0349749523         3.7532160922        50.0785801866       980.5954118719
 49        94.5811452693       114.0071219785         7.6668420541       155.6447434831      3725.7174749841
 50        94.6010872485       114.0071219785         7.6614486025       155.4838281230      3720.6947368674
 51        94.5811452693       114.0071219785         7.6668420541       155.6447434831      3725.7174749841
 52        94.6010872485       114.0071219785         7.6614486025       155.4838281230      3720.6947368674
 53        93.7889418397       114.0071219785         7.9527323257       161.4414997998      3884.1577019201
 54        93.7809337879       114.0071219785         7.9543184149       161.4851402276      3885.5558454587
 55        93.7889418397       114.0071219785         7.9527323257       161.4414997998      3884.1577019201
 56        93.7809337879       114.0071219785         7.9543184149       161.4851402276      3885.5558454587
 57        17.7378269492        19.2806797260         4.6206398856        28.5407429293       244.0118851070
 58        17.7423813809        19.2806797260         4.6186218254        28.5236494098       243.8440196895
 59        17.7378269492        19.2806797260         4.6206398856        28.5407429293       244.0118851070
 60        17.7423813809        19.2806797260         4.6186218254        28.5236494098       243.8440196895
 61        17.7557405757        19.2806797260         4.5974421930        28.1858919899       238.3989532765
 62        17.7547307058        19.2806797260         4.5944725270        28.1609371961       238.1638630005
 63        17.7557405757        19.2806797260         4.5974421930        28.1858919899       238.3989532765
 64        17.7547307058        19.2806797260         4.5944725270        28.1609371961       238.1638630005
 65        17.7071212241        19.2806797260         4.5641022279        27.9997004041       238.3862560905
 66        17.7114628575        19.2806797260         4.5655325586        28.0208996735       238.7378005444
 67        17.7071212241        19.2806797260         4.5641022279        27.9997004041       238.3862560905
 68        17.7114628575        19.2806797260         4.5655325586        28.0208996735       238.7378005444
 69        17.7801635135        19.2806797260         4.6499918574        28.7022810454       243.2559586126
 70        17.7839572626        19.2806797260         4.6483088342        28.6896601284       243.1797658335
 71        17.7801635135        19.2806797260         4.6499918574        28.7022810454       243.2559586126
 72        17.7839572626        19.2806797260         4.6483088342        28.6896601284       243.1797658335
 73        17.9271464536        19.2806797260         4.6162622729        28.5444284361       243.7586859279
 74        17.9268692398        19.2806797260         4.6123392646        28.5155450196       243.5778784053
 75        17.9271464536        19.2806797260         4.6162622729        28.5444284361       243.7586859279
 76        17.9268692398        19.2806797260         4.6123392646        28.5155450196       243.5778784053
 77        17.7364482513        19.2806797260         4.6109138093        28.2991480640       239.7396757688
 78        17.7395879034        19.2806797260         4.6133384362        28.3223853642       239.9736485918
 79        17.7364482513        19.2806797260         4.6109138093        28.2991480640       239.7396757688
 80        17.7395879034        19.2806797260         4.6133384362        28.3223853642       239.9736485918
 81        17.8890007423        19.2806797260         4.5855274937        28.2661383178       240.7238340955
 82        17.8870061034        19.2806797260         4.5853013998        28.2641260223       240.6813633459
 83        17.8890007423        19.2806797260         4.5855274937        28.2661383178       240.7238340955
 84        17.8870061034        19.2806797260         4.5853013998        28.2641260223       240.6813633459
 85        17.7806990221        19.2806797260         4.5857340631        28.0634304892       236.0622590150
 86        17.7817319751        19.2806797260         4.5887180447        28.0852369561       236.2574811254
 87        17.7806990221        19.2806797260         4.5857340631        28.0634304892       236.0622590150
 88        17.7817319751        19.2806797260         4.5887180447        28.0852369561       236.2574811254
 89        22.1106338513        23.7788846669         4.4339050088        33.1431290723       340.2204510586
 90        22.1102716930        23.7788846669         4.4323213792        33.1328042117       340.2069860389
 91        22.1106338513        23.7788846669         4.4339050088        33.1431290723       340.2204510586
 92        22.1102716930        23.7788846669         4.4323213792        33.1328042117       340.2069860389
 
+ Dispersion coefficients
# All results in atomic units.
# i   j              C6                  C8                  C10                   Rc                  Rvdw
  1   1        19.8800401237       832.8506098976     38490.6915907541         6.6347081473         7.2616011731
  2   1        19.8766285762       832.5530046943     38470.5787029996         6.6341264437         7.2613658739
  2   2        19.8732201575       832.2555836206     38450.4787523631         6.6335446836         7.2611305520
  3   1        19.8800401237       832.8506098976     38490.6915907543         6.6347081473         7.2616011731
  3   2        19.8766285762       832.5530046943     38470.5787029999         6.6341264437         7.2613658739
  3   3        19.8800401237       832.8506098976     38490.6915907546         6.6347081473         7.2616011731
  4   1        19.8766285762       832.5530046943     38470.5787029996         6.6341264437         7.2613658739
  4   2        19.8732201575       832.2555836205     38450.4787523630         6.6335446836         7.2611305520
  4   3        19.8766285762       832.5530046943     38470.5787029998         6.6341264437         7.2613658739
  4   4        19.8732201575       832.2555836205     38450.4787523630         6.6335446836         7.2611305520
  5   1        19.9460142134       833.1934841007     38295.2586783334         6.6207146680         7.2559408107
  5   2        19.9426177378       832.8964090442     38275.2203213252         6.6201307677         7.2557046230
  5   3        19.9460142134       833.1934841007     38295.2586783337         6.6207146680         7.2559408107
  5   4        19.9426177378       832.8964090442     38275.2203213252         6.6201307677         7.2557046230
  5   5        20.0124811391       833.5408696709     38099.1765257953         6.6066577758         7.2502547978
  6   1        19.9413000421       832.8575627001     38273.8007812082         6.6201784836         7.2557239241
  6   2        19.9379071965       832.5606995829     38253.7767161360         6.6195945285         7.2554877143
  6   3        19.9413000421       832.8575627001     38273.8007812085         6.6201784836         7.2557239241
  6   4        19.9379071965       832.5606995829     38253.7767161360         6.6195945285         7.2554877143
  6   5        20.0077805977       833.2056247754     38077.8110631636         6.6061195204         7.2500370735
  6   6        20.0030843032       832.8706222354     38056.4613287083         6.6055812120         7.2498193277
  7   1        19.9460142134       833.1934841007     38295.2586783336         6.6207146680         7.2559408107
  7   2        19.9426177378       832.8964090442     38275.2203213254         6.6201307677         7.2557046230
  7   3        19.9460142134       833.1934841007     38295.2586783339         6.6207146680         7.2559408107
  7   4        19.9426177378       832.8964090442     38275.2203213253         6.6201307677         7.2557046230
  7   5        20.0124811391       833.5408696709     38099.1765257954         6.6066577758         7.2502547978
  7   6        20.0077805977       833.2056247754     38077.8110631638         6.6061195204         7.2500370735
  7   7        20.0124811391       833.5408696709     38099.1765257956         6.6066577758         7.2502547978
  8   1        19.9413000421       832.8575627001     38273.8007812083         6.6201784836         7.2557239241
  8   2        19.9379071965       832.5606995829     38253.7767161361         6.6195945285         7.2554877143
  8   3        19.9413000421       832.8575627001     38273.8007812085         6.6201784836         7.2557239241
  8   4        19.9379071965       832.5606995829     38253.7767161360         6.6195945285         7.2554877143
  8   5        20.0077805977       833.2056247754     38077.8110631637         6.6061195204         7.2500370735
  8   6        20.0030843032       832.8706222354     38056.4613287084         6.6055812120         7.2498193277
  8   7        20.0077805977       833.2056247754     38077.8110631638         6.6061195204         7.2500370735
  8   8        20.0030843032       832.8706222355     38056.4613287085         6.6055812120         7.2498193277
  9   1        19.7871038309       827.2106570045     38177.2029813618         6.6289382319         7.2592672423
  9   2        19.7837486807       826.9164334444     38157.3104174383         6.6283561105         7.2590317742
  9   3        19.7871038309       827.2106570045     38177.2029813621         6.6289382319         7.2592672423
  9   4        19.7837486807       826.9164334444     38157.3104174382         6.6283561105         7.2590317742
  9   5        19.8531892540       827.5636294169     37983.4405909462         6.6149246878         7.2535987637
  9   6        19.8485419853       827.2315594488     37962.2229228002         6.6143880862         7.2533817083
  9   7        19.8531892540       827.5636294169     37983.4405909463         6.6149246878         7.2535987637
  9   8        19.8485419853       827.2315594488     37962.2229228003         6.6143880862         7.2533817083
  9   9        19.6952452915       821.6320709916     37867.3274513834         6.6231658581         7.2569323171
 10   1        19.7882532326       827.1739806321     38171.3140817529         6.6285861220         7.2591248138
 10   2        19.7849004840       826.8798628625     38151.4279742390         6.6280039611         7.2588893298
 10   3        19.7882532326       827.1739806321     38171.3140817532         6.6285861220         7.2591248138
 10   4        19.7849004840       826.8798628625     38151.4279742389         6.6280039611         7.2588893298
 10   5        19.8543694395       827.5278136331     37977.5841632193         6.6145711776         7.2534557688
 10   6        19.8497247809       827.1958641065     37956.3737582701         6.6140345379         7.2532386981
 10   7        19.8543694395       827.5278136331     37977.5841632195         6.6145711776         7.2534557688
 10   8        19.8497247809       827.1958641065     37956.3737582701         6.6140345379         7.2532386981
 10   9        19.6964306521       821.5971864326     37861.5514590511         6.6228134308         7.2567897602
 10  10        19.6976187349       821.5624052621     37855.7804029156         6.6224609766         7.2566471925
 11   1        19.7871038309       827.2106570045     38177.2029813614         6.6289382319         7.2592672423
 11   2        19.7837486807       826.9164334444     38157.3104174379         6.6283561105         7.2590317742
 11   3        19.7871038309       827.2106570045     38177.2029813617         6.6289382319         7.2592672423
 11   4        19.7837486807       826.9164334444     38157.3104174378         6.6283561105         7.2590317742
 11   5        19.8531892540       827.5636294169     37983.4405909458         6.6149246878         7.2535987637
 11   6        19.8485419853       827.2315594488     37962.2229227998         6.6143880862         7.2533817083
 11   7        19.8531892540       827.5636294169     37983.4405909459         6.6149246878         7.2535987637
 11   8        19.8485419853       827.2315594488     37962.2229227999         6.6143880862         7.2533817083
 11   9        19.6952452915       821.6320709916     37867.3274513830         6.6231658581         7.2569323171
 11  10        19.6964306521       821.5971864326     37861.5514590507         6.6228134308         7.2567897602
 11  11        19.6952452915       821.6320709916     37867.3274513826         6.6231658581         7.2569323171
 12   1        19.7882532326       827.1739806321     38171.3140817532         6.6285861220         7.2591248138
 12   2        19.7849004840       826.8798628625     38151.4279742393         6.6280039611         7.2588893298
 12   3        19.7882532326       827.1739806321     38171.3140817535         6.6285861220         7.2591248138
 12   4        19.7849004840       826.8798628625     38151.4279742392         6.6280039611         7.2588893298
 12   5        19.8543694395       827.5278136331     37977.5841632196         6.6145711776         7.2534557688
 12   6        19.8497247809       827.1958641065     37956.3737582704         6.6140345379         7.2532386981
 12   7        19.8543694395       827.5278136331     37977.5841632198         6.6145711776         7.2534557688
 12   8        19.8497247809       827.1958641065     37956.3737582704         6.6140345379         7.2532386981
 12   9        19.6964306521       821.5971864326     37861.5514590514         6.6228134308         7.2567897602
 12  10        19.6976187349       821.5624052621     37855.7804029159         6.6224609766         7.2566471925
 12  11        19.6964306521       821.5971864326     37861.5514590510         6.6228134308         7.2567897602
 12  12        19.6976187349       821.5624052621     37855.7804029162         6.6224609766         7.2566471925
 13   1        19.8431329753       829.8230658192     38313.2232600424         6.6301484905         7.2597567919
 13   2        19.8397772631       829.5283370683     38293.2829641535         6.6295665191         7.2595213845
 13   3        19.8431329753       829.8230658192     38313.2232600427         6.6301484905         7.2597567919
 13   4        19.8397772631       829.5283370683     38293.2829641534         6.6295665191         7.2595213845
 13   5        19.9094982854       830.1818075911     38119.1216540982         6.6161399324         7.2540903301
 13   6        19.9048477722       829.8491466079     38097.8527576199         6.6156034741         7.2538733328
 13   7        19.9094982854       830.1818075911     38119.1216540984         6.6161399324         7.2540903301
 13   8        19.9048477722       829.8491466079     38097.8527576200         6.6156034741         7.2538733328
 13   9        19.7511564894       824.2333621497     38002.5699167986         6.6243773756         7.2574223759
 13  10        19.7523543409       824.1987755275     37996.7946034180         6.6240250481         7.2572798595
 13  11        19.7511564895       824.2333621497     38002.5699167982         6.6243773756         7.2574223759
 13  12        19.7523543409       824.1987755275     37996.7946034183         6.6240250481         7.2572798595
 13  13        19.8072578254       826.8441125102     38138.3424118494         6.6255885272         7.2579122867
 14   1        19.8449125653       829.9889340948     38325.3340003451         6.6305238808         7.2599086372
 14   2        19.8415585745       829.6942480153     38305.3930253158         6.6299419510         7.2596732466
 14   3        19.8449125653       829.9889340948     38325.3340003454         6.6305238808         7.2599086372
 14   4        19.8415585745       829.6942480153     38305.3930253157         6.6299419510         7.2596732466
 14   5        19.9113048149       830.3488891225     38131.2634030130         6.6165168077         7.2542427762
 14   6        19.9066561279       830.0162702628     38109.9936589709         6.6159803895         7.2540257950
 14   7        19.9113048149       830.3488891225     38131.2634030132         6.6165168077         7.2542427762
 14   8        19.9066561279       830.0162702628     38109.9936589709         6.6159803895         7.2540257950
 14   9        19.7529599958       824.3996476783     38014.6594929498         6.6247530977         7.2575743555
 14  10        19.7541600215       824.3651495852     38008.8874202968         6.6244007985         7.2574318505
 14  11        19.7529599958       824.3996476783     38014.6594929494         6.6247530977         7.2575743555
 14  12        19.7541600215       824.3651495852     38008.8874202971         6.6244007985         7.2574318505
 14  13        19.8090735628       827.0111917391     38150.4848775984         6.6259641438         7.2580642237
 14  14        19.8108910749       827.1783618058     38162.6331325219         6.6263397305         7.2582161485
 15   1        19.8431329753       829.8230658192     38313.2232600424         6.6301484905         7.2597567919
 15   2        19.8397772631       829.5283370683     38293.2829641534         6.6295665191         7.2595213845
 15   3        19.8431329753       829.8230658192     38313.2232600427         6.6301484905         7.2597567919
 15   4        19.8397772631       829.5283370683     38293.2829641534         6.6295665191         7.2595213845
 15   5        19.9094982854       830.1818075911     38119.1216540981         6.6161399324         7.2540903301
 15   6        19.9048477722       829.8491466079     38097.8527576199         6.6156034741         7.2538733328
 15   7        19.9094982854       830.1818075911     38119.1216540983         6.6161399324         7.2540903301
 15   8        19.9048477722       829.8491466079     38097.8527576199         6.6156034741         7.2538733328
 15   9        19.7511564894       824.2333621496     38002.5699167985         6.6243773756         7.2574223759
 15  10        19.7523543409       824.1987755275     37996.7946034180         6.6240250481         7.2572798595
 15  11        19.7511564894       824.2333621496     38002.5699167982         6.6243773756         7.2574223759
 15  12        19.7523543409       824.1987755275     37996.7946034183         6.6240250481         7.2572798595
 15  13        19.8072578254       826.8441125102     38138.3424118493         6.6255885272         7.2579122867
 15  14        19.8090735628       827.0111917391     38150.4848775983         6.6259641438         7.2580642237
 15  15        19.8072578254       826.8441125102     38138.3424118492         6.6255885272         7.2579122867
 16   1        19.8449125653       829.9889340948     38325.3340003450         6.6305238808         7.2599086372
 16   2        19.8415585745       829.6942480153     38305.3930253158         6.6299419510         7.2596732466
 16   3        19.8449125653       829.9889340948     38325.3340003453         6.6305238808         7.2599086372
 16   4        19.8415585745       829.6942480153     38305.3930253157         6.6299419510         7.2596732466
 16   5        19.9113048149       830.3488891225     38131.2634030130         6.6165168077         7.2542427762
 16   6        19.9066561279       830.0162702628     38109.9936589708         6.6159803895         7.2540257950
 16   7        19.9113048149       830.3488891225     38131.2634030132         6.6165168077         7.2542427762
 16   8        19.9066561279       830.0162702628     38109.9936589709         6.6159803895         7.2540257950
 16   9        19.7529599958       824.3996476783     38014.6594929498         6.6247530977         7.2575743555
 16  10        19.7541600215       824.3651495852     38008.8874202968         6.6244007985         7.2574318505
 16  11        19.7529599958       824.3996476783     38014.6594929494         6.6247530977         7.2575743555
 16  12        19.7541600215       824.3651495852     38008.8874202971         6.6244007985         7.2574318505
 16  13        19.8090735628       827.0111917391     38150.4848775984         6.6259641438         7.2580642237
 16  14        19.8108910749       827.1783618058     38162.6331325219         6.6263397305         7.2582161485
 16  15        19.8090735628       827.0111917391     38150.4848775983         6.6259641438         7.2580642237
 16  16        19.8108910749       827.1783618058     38162.6331325218         6.6263397305         7.2582161485
 17   1        19.9262193274       833.1481114250     38337.8498318797         6.6242048783         7.2573526007
 17   2        19.9228634980       832.8527563744     38317.8779788283         6.6236214128         7.2571165889
 17   3        19.9262193274       833.1481114250     38337.8498318800         6.6242048783         7.2573526007
 17   4        19.9228634980       832.8527563744     38317.8779788282         6.6236214128         7.2571165889
 17   5        19.9930071201       833.5138835570     38142.7911877984         6.6101624274         7.2516724294
 17   6        19.9883525905       833.1805079697     38121.4963926998         6.6096245875         7.2514548731
 17   7        19.9930071201       833.5138835570     38142.7911877986         6.6101624274         7.2516724294
 17   8        19.9883525905       833.1805079697     38121.4963926998         6.6096245875         7.2514548731
 17   9        19.8340793328       827.5449423758     38026.9745893006         6.6184185502         7.2550120310
 17  10        19.8352964395       827.5107950241     38021.1952922307         6.6180653292         7.2548691531
 17  11        19.8340793328       827.5449423758     38026.9745893002         6.6184185502         7.2550120310
 17  12        19.8352964395       827.5107950241     38021.1952922310         6.6180653292         7.2548691531
 17  13        19.8904651787       830.1682749023     38163.0234171709         6.6196327345         7.2555031686
 17  14        19.8922996250       830.3365048692     38175.2244489903         6.6200093041         7.2556554910
 17  15        19.8904651787       830.1682749023     38163.0234171708         6.6196327345         7.2555031686
 17  16        19.8922996250       830.3365048692     38175.2244489903         6.6200093041         7.2556554910
 17  17        19.9740984225       833.5089604686     38187.3868190367         6.6136640064         7.2530888181
 18   1        19.9283877215       833.1915900402     38339.7378110212         6.6241076470         7.2573132707
 18   2        19.9250349470       832.8963537598     38319.7714320781         6.6235241857         7.2570772606
 18   3        19.9283877215       833.1915900402     38339.7378110215         6.6241076470         7.2573132707
 18   4        19.9250349470       832.8963537598     38319.7714320781         6.6235241857         7.2570772606
 18   5        19.9952182751       833.5587234464     38144.7287214803         6.6100649957         7.2516330182
 18   6        19.9905670327       833.2254804842     38123.4399689248         6.6095271588         7.2514154632
 18   7        19.9952182751       833.5587234465     38144.7287214804         6.6100649957         7.2516330182
 18   8        19.9905670327       833.2254804842     38123.4399689248         6.6095271588         7.2514154632
 18   9        19.8362920960       827.5902988865     38028.9513227576         6.6183214111         7.2549727383
 18  10        19.8375128304       827.5562905151     38023.1783103984         6.6179681908         7.2548298606
 18  11        19.8362920960       827.5902988865     38028.9513227572         6.6183214111         7.2549727383
 18  12        19.8375128304       827.5562905151     38023.1783103987         6.6179681908         7.2548298606
 18  13        19.8926962538       830.2142922651     38165.0307544354         6.6195355984         7.2554638770
 18  14        19.8945336258       830.3826502876     38177.2377595422         6.6199121672         7.2556161991
 18  15        19.8926962538       830.2142922651     38165.0307544354         6.6195355984         7.2554638770
 18  16        19.8945336258       830.3826502876     38177.2377595421         6.6199121672         7.2556161991
 18  17        19.9763576191       833.5559364899     38189.4238198110         6.6135665836         7.2530494106
 18  18        19.9786216712       833.6031044092     38191.4697953949         6.6134691665         7.2530100053
 19   1        19.9262193274       833.1481114250     38337.8498318795         6.6242048783         7.2573526007
 19   2        19.9228634980       832.8527563744     38317.8779788281         6.6236214128         7.2571165889
 19   3        19.9262193274       833.1481114250     38337.8498318798         6.6242048783         7.2573526007
 19   4        19.9228634980       832.8527563744     38317.8779788280         6.6236214128         7.2571165889
 19   5        19.9930071201       833.5138835570     38142.7911877981         6.6101624274         7.2516724294
 19   6        19.9883525905       833.1805079697     38121.4963926996         6.6096245875         7.2514548731
 19   7        19.9930071201       833.5138835570     38142.7911877983         6.6101624274         7.2516724294
 19   8        19.9883525905       833.1805079697     38121.4963926996         6.6096245875         7.2514548731
 19   9        19.8340793328       827.5449423758     38026.9745893004         6.6184185502         7.2550120310
 19  10        19.8352964395       827.5107950241     38021.1952922305         6.6180653292         7.2548691531
 19  11        19.8340793328       827.5449423758     38026.9745893000         6.6184185502         7.2550120310
 19  12        19.8352964395       827.5107950241     38021.1952922308         6.6180653292         7.2548691531
 19  13        19.8904651787       830.1682749023     38163.0234171706         6.6196327345         7.2555031686
 19  14        19.8922996250       830.3365048692     38175.2244489901         6.6200093041         7.2556554910
 19  15        19.8904651787       830.1682749023     38163.0234171706         6.6196327345         7.2555031686
 19  16        19.8922996250       830.3365048692     38175.2244489901         6.6200093041         7.2556554910
 19  17        19.9740984225       833.5089604686     38187.3868190364         6.6136640064         7.2530888181
 19  18        19.9763576191       833.5559364899     38189.4238198107         6.6135665836         7.2530494106
 19  19        19.9740984225       833.5089604686     38187.3868190362         6.6136640064         7.2530888181
 20   1        19.9283877215       833.1915900402     38339.7378110214         6.6241076470         7.2573132707
 20   2        19.9250349470       832.8963537598     38319.7714320783         6.6235241857         7.2570772606
 20   3        19.9283877215       833.1915900402     38339.7378110217         6.6241076470         7.2573132707
 20   4        19.9250349470       832.8963537598     38319.7714320783         6.6235241857         7.2570772606
 20   5        19.9952182751       833.5587234465     38144.7287214805         6.6100649957         7.2516330182
 20   6        19.9905670327       833.2254804842     38123.4399689249         6.6095271588         7.2514154632
 20   7        19.9952182751       833.5587234465     38144.7287214806         6.6100649957         7.2516330182
 20   8        19.9905670327       833.2254804842     38123.4399689250         6.6095271588         7.2514154632
 20   9        19.8362920960       827.5902988865     38028.9513227577         6.6183214111         7.2549727383
 20  10        19.8375128304       827.5562905151     38023.1783103985         6.6179681908         7.2548298606
 20  11        19.8362920960       827.5902988865     38028.9513227573         6.6183214111         7.2549727383
 20  12        19.8375128304       827.5562905151     38023.1783103988         6.6179681908         7.2548298606
 20  13        19.8926962538       830.2142922651     38165.0307544356         6.6195355984         7.2554638770
 20  14        19.8945336258       830.3826502876     38177.2377595423         6.6199121672         7.2556161991
 20  15        19.8926962538       830.2142922651     38165.0307544356         6.6195355984         7.2554638770
 20  16        19.8945336258       830.3826502876     38177.2377595423         6.6199121672         7.2556161991
 20  17        19.9763576191       833.5559364899     38189.4238198112         6.6135665836         7.2530494106
 20  18        19.9786216712       833.6031044092     38191.4697953951         6.6134691665         7.2530100053
 20  19        19.9763576191       833.5559364899     38189.4238198109         6.6135665836         7.2530494106
 20  20        19.9786216712       833.6031044093     38191.4697953953         6.6134691665         7.2530100053
 21   1        19.8697445095       813.2726711550     36918.9724684613         6.5669140779         7.2341784720
 21   2        19.8664661894       812.9838854517     36899.6585547734         6.5663265361         7.2339408113
 21   3        19.8697445095       813.2726711550     36918.9724684616         6.5669140779         7.2341784720
 21   4        19.8664661894       812.9838854517     36899.6585547733         6.5663265361         7.2339408113
 21   5        19.9370487058       813.6075020483     36725.3566132837         6.5526700317         7.2284167553
 21   6        19.9324828015       813.2822353135     36704.7943685782         6.5521281023         7.2281975449
 21   7        19.9370487058       813.6075020483     36725.3566132838         6.5526700317         7.2284167553
 21   8        19.9324828015       813.2822353135     36704.7943685782         6.5521281023         7.2281975449
 21   9        19.7789472116       807.8105417171     36619.9115854574         6.5611047353         7.2318285929
 21  10        19.7802303692       807.7782549703     36614.3363732275         6.5607483798         7.2316844471
 21  11        19.7789472116       807.8105417171     36619.9115854570         6.5611047353         7.2318285929
 21  12        19.7802303692       807.7782549703     36614.3363732278         6.5607483798         7.2316844471
 21  13        19.8354153593       810.3867851821     36751.8813271140         6.5623314298         7.2323247909
 21  14        19.8372988139       810.5551469946     36763.8780145397         6.5627112730         7.2324784374
 21  15        19.8354153593       810.3867851821     36751.8813271140         6.5623314298         7.2323247909
 21  16        19.8372988139       810.5551469946     36763.8780145397         6.5627112730         7.2324784374
 21  17        19.9191897871       813.6599327059     36771.6219033772         6.5562079115         7.2298478277
 21  18        19.9215342459       813.7085299673     36773.7515087946         6.5561114824         7.2298088221
 21  19        19.9191897871       813.6599327059     36771.6219033770         6.5562079115         7.2298478277
 21  20        19.9215342459       813.7085299674     36773.7515087948         6.5561114824         7.2298088221
 21  21        19.8662512084       793.9864395501     35395.4028482650         6.4985381420         7.2065204059
 22   1        19.8618652099       812.9235962661     36902.5574596501         6.5668356087         7.2341467312
 22   2        19.8585916016       812.6350690759     36883.2582202288         6.5662480631         7.2339090690
 22   3        19.8618652099       812.9235962661     36902.5574596504         6.5668356087         7.2341467312
 22   4        19.8585916016       812.6350690759     36883.2582202287         6.5662480631         7.2339090690
 22   5        19.9291781254       813.2596493029     36709.0836333021         6.5525913044         7.2283849101
 22   6        19.9246178167       812.9346718441     36688.5372439368         6.5520493709         7.2281656980
 22   7        19.9291781254       813.2596493029     36709.0836333023         6.5525913044         7.2283849101
 22   8        19.9246178167       812.9346718441     36688.5372439368         6.5520493709         7.2281656980
 22   9        19.7711581860       807.4659706153     36603.7281085429         6.5610262561         7.2317968481
 22  10        19.7724443222       807.4338371398     36598.1616376775         6.5606698973         7.2316527009
 22  11        19.7711581860       807.4659706153     36603.7281085425         6.5610262561         7.2317968481
 22  12        19.7724443222       807.4338371398     36598.1616376778         6.5606698973         7.2316527009
 22  13        19.8276160905       810.0416140375     36735.6623966003         6.5622529651         7.2322930519
 22  14        19.8295015184       810.2100180168     36747.6590001325         6.5626328118         7.2324466999
 22  15        19.8276160905       810.0416140375     36735.6623966002         6.5622529651         7.2322930519
 22  16        19.8295015184       810.2100180169     36747.6590001325         6.5626328118         7.2324466999
 22  17        19.9113762773       813.3141263162     36755.4226339497         6.5561292260         7.2298159994
 22  18        19.9137244064       813.3628888537     36757.5597851793         6.5560327989         7.2297769947
 22  19        19.9113762773       813.3141263162     36755.4226339494         6.5561292260         7.2298159994
 22  20        19.9137244064       813.3628888537     36757.5597851795         6.5560327989         7.2297769947
 22  21        19.8585497531       793.6520694755     35379.9544888916         6.4984593874         7.2064885497
 22  22        19.8508558646       793.3180224075     35364.5210155275         6.4983806332         7.2064566936
 23   1        19.8697445095       813.2726711550     36918.9724684613         6.5669140779         7.2341784720
 23   2        19.8664661894       812.9838854517     36899.6585547734         6.5663265361         7.2339408113
 23   3        19.8697445095       813.2726711550     36918.9724684616         6.5669140779         7.2341784720
 23   4        19.8664661894       812.9838854517     36899.6585547734         6.5663265361         7.2339408113
 23   5        19.9370487058       813.6075020483     36725.3566132837         6.5526700317         7.2284167553
 23   6        19.9324828015       813.2822353135     36704.7943685782         6.5521281023         7.2281975449
 23   7        19.9370487058       813.6075020483     36725.3566132838         6.5526700317         7.2284167553
 23   8        19.9324828015       813.2822353135     36704.7943685783         6.5521281023         7.2281975449
 23   9        19.7789472116       807.8105417171     36619.9115854574         6.5611047353         7.2318285929
 23  10        19.7802303692       807.7782549703     36614.3363732275         6.5607483798         7.2316844471
 23  11        19.7789472116       807.8105417171     36619.9115854571         6.5611047353         7.2318285929
 23  12        19.7802303692       807.7782549703     36614.3363732278         6.5607483798         7.2316844471
 23  13        19.8354153593       810.3867851821     36751.8813271140         6.5623314298         7.2323247909
 23  14        19.8372988139       810.5551469946     36763.8780145398         6.5627112730         7.2324784374
 23  15        19.8354153593       810.3867851821     36751.8813271140         6.5623314298         7.2323247909
 23  16        19.8372988139       810.5551469946     36763.8780145397         6.5627112730         7.2324784374
 23  17        19.9191897871       813.6599327059     36771.6219033773         6.5562079115         7.2298478277
 23  18        19.9215342459       813.7085299674     36773.7515087947         6.5561114824         7.2298088221
 23  19        19.9191897871       813.6599327059     36771.6219033770         6.5562079115         7.2298478277
 23  20        19.9215342459       813.7085299674     36773.7515087949         6.5561114824         7.2298088221
 23  21        19.8662512084       793.9864395501     35395.4028482650         6.4985381420         7.2065204059
 23  22        19.8585497531       793.6520694755     35379.9544888917         6.4984593874         7.2064885497
 23  23        19.8662512084       793.9864395501     35395.4028482651         6.4985381420         7.2065204059
 24   1        19.8618652099       812.9235962661     36902.5574596504         6.5668356087         7.2341467312
 24   2        19.8585916016       812.6350690759     36883.2582202291         6.5662480631         7.2339090690
 24   3        19.8618652099       812.9235962661     36902.5574596507         6.5668356087         7.2341467312
 24   4        19.8585916016       812.6350690759     36883.2582202291         6.5662480631         7.2339090690
 24   5        19.9291781254       813.2596493029     36709.0836333025         6.5525913044         7.2283849101
 24   6        19.9246178167       812.9346718441     36688.5372439371         6.5520493709         7.2281656980
 24   7        19.9291781254       813.2596493029     36709.0836333026         6.5525913044         7.2283849101
 24   8        19.9246178167       812.9346718441     36688.5372439372         6.5520493709         7.2281656980
 24   9        19.7711581860       807.4659706153     36603.7281085432         6.5610262561         7.2317968481
 24  10        19.7724443222       807.4338371398     36598.1616376778         6.5606698973         7.2316527009
 24  11        19.7711581860       807.4659706153     36603.7281085428         6.5610262561         7.2317968481
 24  12        19.7724443222       807.4338371398     36598.1616376781         6.5606698973         7.2316527009
 24  13        19.8276160905       810.0416140375     36735.6623966006         6.5622529651         7.2322930519
 24  14        19.8295015184       810.2100180169     36747.6590001329         6.5626328118         7.2324466999
 24  15        19.8276160905       810.0416140375     36735.6623966006         6.5622529651         7.2322930519
 24  16        19.8295015184       810.2100180169     36747.6590001328         6.5626328118         7.2324466999
 24  17        19.9113762773       813.3141263162     36755.4226339500         6.5561292260         7.2298159994
 24  18        19.9137244064       813.3628888537     36757.5597851797         6.5560327989         7.2297769947
 24  19        19.9113762773       813.3141263162     36755.4226339498         6.5561292260         7.2298159994
 24  20        19.9137244064       813.3628888537     36757.5597851799         6.5560327989         7.2297769947
 24  21        19.8585497531       793.6520694755     35379.9544888920         6.4984593874         7.2064885497
 24  22        19.8508558646       793.3180224075     35364.5210155279         6.4983806332         7.2064566936
 24  23        19.8585497531       793.6520694755     35379.9544888920         6.4984593874         7.2064885497
 24  24        19.8508558646       793.3180224075     35364.5210155282         6.4983806332         7.2064566936
 25   1        19.7907533681       826.8930433593     38122.8466703196         6.6262590352         7.2581835072
 25   2        19.7874600128       826.6014525275     38103.0878620998         6.6256765004         7.2579478719
 25   3        19.7907533681       826.8930433593     38122.8466703199         6.6262590352         7.2581835072
 25   4        19.7874600128       826.6014525275     38103.0878620997         6.6256765004         7.2579478719
 25   5        19.8574987012       827.2714948705     37930.1875971105         6.6122334367         7.2525101526
 25   6        19.8529198100       826.9423534298     37909.1183487583         6.6116964449         7.2522929395
 25   7        19.8574987012       827.2714948705     37930.1875971107         6.6122334367         7.2525101526
 25   8        19.8529198100       826.9423534298     37909.1183487584         6.6116964449         7.2522929395
 25   9        19.6998705772       821.3569999677     37815.1816588765         6.6204829044         7.2558470623
 25  10        19.7011199436       821.3247357990     37809.5266804237         6.6201302127         7.2557043985
 25  11        19.6998705772       821.3569999677     37815.1816588762         6.6204829044         7.2558470623
 25  12        19.7011199436       821.3247357990     37809.5266804240         6.6201302127         7.2557043985
 25  13        19.7560142944       823.9667234672     37950.6921221050         6.6216953650         7.2563375026
 25  14        19.7578678841       824.1350775959     37962.8704215439         6.6220713673         7.2564895956
 25  15        19.7560142944       823.9667234672     37950.6921221050         6.6216953650         7.2563375026
 25  16        19.7578678841       824.1350775959     37962.8704215438         6.6220713673         7.2564895956
 25  17        19.8392995489       827.2914095771     37975.5070287140         6.6157300308         7.2539245250
 25  18        19.8415968464       827.3402260064     37977.6401948626         6.6156328560         7.2538852177
 25  19        19.8392995489       827.2914095771     37975.5070287137         6.6157300308         7.2539245250
 25  20        19.8415968464       827.3402260064     37977.6401948627         6.6156328560         7.2538852177
 25  21        19.7858223556       807.6212685342     36572.1037345802         6.5583784945         7.2307258285
 25  22        19.7781143967       807.2801821736     36556.0944862493         6.5582999674         7.2306940643
 25  23        19.7858223556       807.6212685342     36572.1037345803         6.5583784945         7.2307258285
 25  24        19.7781143967       807.2801821736     36556.0944862497         6.5582999674         7.2306940643
 25  25        19.7060290907       821.1455984174     37765.9663465538         6.6177976600         7.2547608810
 26   1        19.7909043801       827.0312185717     38134.5081679372         6.6267525044         7.2583831155
 26   2        19.7876113416       826.7396178585     38114.7460602100         6.6261700165         7.2581474992
 26   3        19.7909043801       827.0312185717     38134.5081679375         6.6267525044         7.2583831155
 26   4        19.7876113416       826.7396178585     38114.7460602099         6.6261700165         7.2581474992
 26   5        19.8576537715       827.4102655664     37941.8627752803         6.6127287660         7.2527105133
 26   6        19.8530752247       827.0811068842     37920.7897435502         6.6121918200         7.2524933187
 26   7        19.8576537715       827.4102655664     37941.8627752804         6.6127287660         7.2527105133
 26   8        19.8530752247       827.0811068842     37920.7897435502         6.6121918200         7.2524933187
 26   9        19.7000263348       821.4947541976     37826.7774103314         6.6209767179         7.2560468099
 26  10        19.7012760604       821.4625126573     37821.1227247581         6.6206240595         7.2559041595
 26  11        19.7000263348       821.4947541976     37826.7774103310         6.6209767179         7.2560468099
 26  12        19.7012760604       821.4625126573     37821.1227247584         6.6206240595         7.2559041595
 26  13        19.7561716981       824.1049225595     37962.3267944713         6.6221890524         7.2565371992
 26  14        19.7580255745       824.2733017268     37974.5079093314         6.6225650198         7.2566892780
 26  15        19.7561716981       824.1049225595     37962.3267944713         6.6221890524         7.2565371992
 26  16        19.7580255745       824.2733017268     37974.5079093313         6.6225650198         7.2566892780
 26  17        19.8394594901       827.4302682457     37987.1914085126         6.6162249940         7.2541247376
 26  18        19.8417572661       827.4791195593     37989.3262058080         6.6161278153         7.2540854288
 26  19        19.8394594901       827.4302682457     37987.1914085123         6.6162249940         7.2541247376
 26  20        19.8417572661       827.4791195593     37989.3262058082         6.6161278153         7.2540854288
 26  21        19.7859910138       807.7599857781     36583.5461310638         6.5588768127         7.2309273982
 26  22        19.7782834483       807.4188638926     36567.5329297384         6.5587982886         7.2308956352
 26  23        19.7859910138       807.7599857781     36583.5461310638         6.5588768127         7.2309273982
 26  24        19.7782834483       807.4188638926     36567.5329297387         6.5587982886         7.2308956352
 26  25        19.7061932926       821.2837419037     37777.5755120028         6.6182918236         7.2549607701
 26  26        19.7063575418       821.4218895528     37789.1865895870         6.6187859480         7.2551606434
 27   1        19.7907533681       826.8930433593     38122.8466703198         6.6262590352         7.2581835072
 27   2        19.7874600128       826.6014525275     38103.0878621000         6.6256765004         7.2579478719
 27   3        19.7907533681       826.8930433593     38122.8466703201         6.6262590352         7.2581835072
 27   4        19.7874600128       826.6014525275     38103.0878620999         6.6256765004         7.2579478719
 27   5        19.8574987012       827.2714948705     37930.1875971108         6.6122334367         7.2525101526
 27   6        19.8529198100       826.9423534298     37909.1183487585         6.6116964449         7.2522929395
 27   7        19.8574987012       827.2714948705     37930.1875971109         6.6122334367         7.2525101526
[...]
            =  -1.700073585490E-04   1.751156033214E-04   1.678613368323E-04  Ry/bohr
  Fvdw (86) =   8.640645193423E-05   8.607628725825E-05  -8.159549013060E-05  Hartree/bohr
            =   1.728129038685E-04   1.721525745165E-04  -1.631909802612E-04  Ry/bohr
  Fvdw (87) =   8.500367927449E-05  -8.755780166070E-05  -8.393066841614E-05  Hartree/bohr
            =   1.700073585490E-04  -1.751156033214E-04  -1.678613368323E-04  Ry/bohr
  Fvdw (88) =  -8.640645193422E-05  -8.607628725825E-05   8.159549013059E-05  Hartree/bohr
            =  -1.728129038684E-04  -1.721525745165E-04   1.631909802612E-04  Ry/bohr
  Fvdw (89) =  -1.532973538161E-04   1.475846318252E-04  -1.650687237097E-04  Hartree/bohr
            =  -3.065947076322E-04   2.951692636504E-04  -3.301374474195E-04  Ry/bohr
  Fvdw (90) =   1.545939210406E-04   1.476795092918E-04   1.659659834453E-04  Hartree/bohr
            =   3.091878420813E-04   2.953590185835E-04   3.319319668906E-04  Ry/bohr
  Fvdw (91) =   1.532973538161E-04  -1.475846318252E-04   1.650687237097E-04  Hartree/bohr
            =   3.065947076322E-04  -2.951692636504E-04   3.301374474195E-04  Ry/bohr
  Fvdw (92) =  -1.545939210406E-04  -1.476795092918E-04  -1.659659834453E-04  Hartree/bohr
            =  -3.091878420813E-04  -2.953590185835E-04  -3.319319668906E-04  Ry/bohr
  sigma_vdw (Hy/bohr**3) =  -3.312186236438E-05  -3.463039753619E-09   1.105055778678E-06  
                            -3.463039753619E-09  -3.268895456389E-05  -1.539094653648E-10  
                             1.105055778678E-06  -1.539094653648E-10  -3.853446614344E-05  
  sigma_vdw (Ry/bohr**3) =  -6.624372472876E-05  -6.926079507237E-09   2.210111557356E-06  
                            -6.926079507237E-09  -6.537790912778E-05  -3.078189307296E-10  
                             2.210111557356E-06  -3.078189307296E-10  -7.706893228689E-05  
  sigma_vdw (GPa) =  -9.744786704617E-01  -1.018861300049E-04   3.251185800319E-02  
                     -1.018861300049E-04  -9.617420853865E-01  -4.528172043292E-06  
                      3.251185800319E-02  -4.528172043292E-06  -1.133722944722E+00  
 
 TIME (final):      736.9

!    total energy              =   -4382.07613860 Ry
     Harris-Foulkes estimate   =   -4382.07613863 Ry
     estimated scf accuracy    <       0.00000006 Ry

     total all-electron energy =    -46850.935151 Ry

     The total energy is the sum of the following terms:

     one-electron contribution =   -1724.04865489 Ry
     hartree contribution      =    1087.19346607 Ry
     xc contribution           =    -643.82351742 Ry
     ewald contribution        =   -1133.06866221 Ry
     Dispersion XDM Correction =      -0.59513600 Ry
     Uncorrected (XDM) energy  =   -4381.48100260 Ry
     one-center paw contrib.   =   -1967.73363415 Ry

     convergence has been achieved in  26 iterations

     Forces acting on atoms (Ry/au):

     atom    1 type  1   force =     0.00022867    0.00021684    0.00000493
     atom    2 type  1   force =     0.00029549    0.00044910    0.00007168
     atom    3 type  1   force =    -0.00022867   -0.00021684   -0.00000493
     atom    4 type  1   force =    -0.00029549   -0.00044910   -0.00007168
     atom    5 type  1   force =     0.00006736    0.00018468    0.00019383
     atom    6 type  1   force =    -0.00019274    0.00076379   -0.00025246
     atom    7 type  1   force =    -0.00006736   -0.00018468   -0.00019383
     atom    8 type  1   force =     0.00019274   -0.00076379    0.00025246
     atom    9 type  1   force =    -0.00047923    0.00038400   -0.00002244
     atom   10 type  1   force =     0.00013863    0.00014735    0.00003259
     atom   11 type  1   force =     0.00047923   -0.00038400    0.00002244
     atom   12 type  1   force =    -0.00013863   -0.00014735   -0.00003259
     atom   13 type  1   force =     0.00005760    0.00005367    0.00007481
     atom   14 type  1   force =    -0.00026925   -0.00020935   -0.00005368
     atom   15 type  1   force =    -0.00005760   -0.00005367   -0.00007481
     atom   16 type  1   force =     0.00026925    0.00020935    0.00005368
     atom   17 type  1   force =    -0.00035298   -0.00031809    0.00006006
     atom   18 type  1   force =    -0.00013124   -0.00014606   -0.00039252
     atom   19 type  1   force =     0.00035298    0.00031809   -0.00006006
     atom   20 type  1   force =     0.00013124    0.00014606    0.00039252
     atom   21 type  1   force =     0.00032250   -0.00010387   -0.00024882
     atom   22 type  1   force =    -0.00005583   -0.00028102    0.00013973
     atom   23 type  1   force =    -0.00032250    0.00010387    0.00024882
     atom   24 type  1   force =     0.00005583    0.00028102   -0.00013973
     atom   25 type  1   force =     0.00000044   -0.00013005    0.00030957
     atom   26 type  1   force =    -0.00036748    0.00062121   -0.00055349
     atom   27 type  1   force =    -0.00000044    0.00013005   -0.00030957
     atom   28 type  1   force =     0.00036748   -0.00062121    0.00055349
     atom   29 type  1   force =    -0.00030267    0.00030503    0.00017697
     atom   30 type  1   force =    -0.00002935    0.00010023   -0.00026825
     atom   31 type  1   force =     0.00030267   -0.00030503   -0.00017697
     atom   32 type  1   force =     0.00002935   -0.00010023    0.00026825
     atom   33 type  1   force =    -0.00002933   -0.00029846    0.00010567
     atom   34 type  1   force =    -0.00010996   -0.00056072   -0.00006665
     atom   35 type  1   force =     0.00002933    0.00029846   -0.00010567
     atom   36 type  1   force =     0.00010996    0.00056072    0.00006665
     atom   37 type  1   force =     0.00026589   -0.00011792    0.00003717
     atom   38 type  1   force =    -0.00020809   -0.00006851   -0.00008432
     atom   39 type  1   force =    -0.00026589    0.00011792   -0.00003717
     atom   40 type  1   force =     0.00020809    0.00006851    0.00008432
     atom   41 type  1   force =    -0.00000209   -0.00013755    0.00042597
     atom   42 type  1   force =    -0.00013039   -0.00039092   -0.00035069
     atom   43 type  1   force =     0.00000209    0.00013755   -0.00042597
     atom   44 type  1   force =     0.00013039    0.00039092    0.00035069
     atom   45 type  1   force =     0.00007609   -0.00042731    0.00016661
     atom   46 type  1   force =    -0.00005028   -0.00012126   -0.00009181
     atom   47 type  1   force =    -0.00007609    0.00042731   -0.00016661
     atom   48 type  1   force =     0.00005028    0.00012126    0.00009181
     atom   49 type  4   force =    -0.00013743    0.00012772   -0.00008028
     atom   50 type  4   force =     0.00020774    0.00010422    0.00010629
     atom   51 type  4   force =     0.00013743   -0.00012772    0.00008028
     atom   52 type  4   force =    -0.00020774   -0.00010422   -0.00010629
     atom   53 type  4   force =     0.00041182   -0.00023919    0.00014252
     atom   54 type  4   force =    -0.00027492   -0.00016302   -0.00010683
     atom   55 type  4   force =    -0.00041182    0.00023919   -0.00014252
     atom   56 type  4   force =     0.00027492    0.00016302    0.00010683
     atom   57 type  2   force =    -0.00026252    0.00017422    0.00072530
     atom   58 type  2   force =     0.00025339    0.00018507    0.00007996
     atom   59 type  2   force =     0.00026252   -0.00017422   -0.00072530
     atom   60 type  2   force =    -0.00025339   -0.00018507   -0.00007996
     atom   61 type  2   force =     0.00000624   -0.00001288   -0.00004240
     atom   62 type  2   force =     0.00045655    0.00012874   -0.00000986
     atom   63 type  2   force =    -0.00000624    0.00001288    0.00004240
     atom   64 type  2   force =    -0.00045655   -0.00012874    0.00000986
     atom   65 type  2   force =    -0.00004208    0.00001604    0.00011047
     atom   66 type  2   force =    -0.00029583    0.00009983   -0.00002819
     atom   67 type  2   force =     0.00004208   -0.00001604   -0.00011047
     atom   68 type  2   force =     0.00029583   -0.00009983    0.00002819
     atom   69 type  2   force =    -0.00041953    0.00040108    0.00048088
     atom   70 type  2   force =     0.00017160    0.00079499   -0.00047270
     atom   71 type  2   force =     0.00041953   -0.00040108   -0.00048088
     atom   72 type  2   force =    -0.00017160   -0.00079499    0.00047270
     atom   73 type  2   force =     0.00030791    0.00027917    0.00008077
     atom   74 type  2   force =    -0.00029616   -0.00000721   -0.00018079
     atom   75 type  2   force =    -0.00030791   -0.00027917   -0.00008077
     atom   76 type  2   force =     0.00029616    0.00000721    0.00018079
     atom   77 type  2   force =    -0.00006651   -0.00050048    0.00025476
     atom   78 type  2   force =    -0.00059665   -0.00052387   -0.00033182
     atom   79 type  2   force =     0.00006651    0.00050048   -0.00025476
     atom   80 type  2   force =     0.00059665    0.00052387    0.00033182
     atom   81 type  2   force =    -0.00084783   -0.00003645    0.00028699
     atom   82 type  2   force =     0.00029522   -0.00052371    0.00002839
     atom   83 type  2   force =     0.00084783    0.00003645   -0.00028699
     atom   84 type  2   force =    -0.00029522    0.00052371   -0.00002839
     atom   85 type  2   force =     0.00036452   -0.00014251    0.00002276
     atom   86 type  2   force =    -0.00003038   -0.00016935    0.00016099
     atom   87 type  2   force =    -0.00036452    0.00014251   -0.00002276
     atom   88 type  2   force =     0.00003038    0.00016935   -0.00016099
     atom   89 type  3   force =     0.00003773   -0.00004549    0.00009498
     atom   90 type  3   force =     0.00004235   -0.00006347    0.00014750
     atom   91 type  3   force =    -0.00003773    0.00004549   -0.00009498
     atom   92 type  3   force =    -0.00004235    0.00006347   -0.00014750

     Total force =     0.004630     Total SCF correction =     0.000553

     Total XDM Dispersion Force =     0.006084

     XDM Dispersion forces acting on atoms:
     atom    1 type  1   force =     0.00044306    0.00040895    0.00014249
     atom    2 type  1   force =    -0.00044137    0.00041917   -0.00014217
     atom    3 type  1   force =    -0.00044306   -0.00040895   -0.00014249
     atom    4 type  1   force =     0.00044137   -0.00041917    0.00014217
     atom    5 type  1   force =     0.00063998    0.00030933   -0.00025548
     atom    6 type  1   force =    -0.00063601    0.00031341    0.00025758
     atom    7 type  1   force =    -0.00063998   -0.00030933    0.00025548
     atom    8 type  1   force =     0.00063601   -0.00031341   -0.00025758
     atom    9 type  1   force =     0.00067087    0.00040526    0.00045549
     atom   10 type  1   force =    -0.00067296    0.00040393   -0.00045398
     atom   11 type  1   force =    -0.00067087   -0.00040526   -0.00045549
     atom   12 type  1   force =     0.00067296   -0.00040393    0.00045398
     atom   13 type  1   force =    -0.00011304   -0.00028843    0.00006833
     atom   14 type  1   force =     0.00012899   -0.00029945   -0.00007669
     atom   15 type  1   force =     0.00011304    0.00028843   -0.00006833
     atom   16 type  1   force =    -0.00012899    0.00029945    0.00007669
     atom   17 type  1   force =    -0.00006874   -0.00067917   -0.00025378
     atom   18 type  1   force =     0.00008027   -0.00068391    0.00024902
     atom   19 type  1   force =     0.00006874    0.00067917    0.00025378
     atom   20 type  1   force =    -0.00008027    0.00068391   -0.00024902
     atom   21 type  1   force =     0.00039563    0.00005940   -0.00010606
     atom   22 type  1   force =    -0.00039176    0.00006386    0.00010588
     atom   23 type  1   force =    -0.00039563   -0.00005940    0.00010606
     atom   24 type  1   force =     0.00039176   -0.00006386   -0.00010588
     atom   25 type  1   force =    -0.00017416   -0.00060360    0.00041991
     atom   26 type  1   force =     0.00018892   -0.00060559   -0.00041680
     atom   27 type  1   force =     0.00017416    0.00060360   -0.00041991
     atom   28 type  1   force =    -0.00018892    0.00060559    0.00041680
     atom   29 type  1   force =     0.00041297    0.00056790    0.00024223
     atom   30 type  1   force =    -0.00040841    0.00056771   -0.00024156
     atom   31 type  1   force =    -0.00041297   -0.00056790   -0.00024223
     atom   32 type  1   force =     0.00040841   -0.00056771    0.00024156
     atom   33 type  1   force =    -0.00001222   -0.00036249   -0.00007114
     atom   34 type  1   force =     0.00002259   -0.00035742    0.00007409
     atom   35 type  1   force =     0.00001222    0.00036249    0.00007114
     atom   36 type  1   force =    -0.00002259    0.00035742   -0.00007409
     atom   37 type  1   force =     0.00001941    0.00037579    0.00004163
     atom   38 type  1   force =    -0.00001446    0.00037840   -0.00004032
     atom   39 type  1   force =    -0.00001941   -0.00037579   -0.00004163
     atom   40 type  1   force =     0.00001446   -0.00037840    0.00004032
     atom   41 type  1   force =    -0.00037326   -0.00031957    0.00021916
     atom   42 type  1   force =     0.00037796   -0.00031925   -0.00020884
     atom   43 type  1   force =     0.00037326    0.00031957   -0.00021916
     atom   44 type  1   force =    -0.00037796    0.00031925    0.00020884
     atom   45 type  1   force =    -0.00021467    0.00003483    0.00009747
     atom   46 type  1   force =     0.00022592    0.00003849   -0.00008852
     atom   47 type  1   force =     0.00021467   -0.00003483   -0.00009747
     atom   48 type  1   force =    -0.00022592   -0.00003849    0.00008852
     atom   49 type  4   force =     0.00038359   -0.00030139   -0.00149463
     atom   50 type  4   force =    -0.00037184   -0.00028308    0.00149263
     atom   51 type  4   force =    -0.00038359    0.00030139    0.00149463
     atom   52 type  4   force =     0.00037184    0.00028308   -0.00149263
     atom   53 type  4   force =    -0.00078542    0.00086171   -0.00000574
     atom   54 type  4   force =     0.00080130    0.00086040    0.00001453
     atom   55 type  4   force =     0.00078542   -0.00086171    0.00000574
     atom   56 type  4   force =    -0.00080130   -0.00086040   -0.00001453
     atom   57 type  2   force =    -0.00019538    0.00019482    0.00014119
     atom   58 type  2   force =     0.00019537    0.00020923   -0.00014334
     atom   59 type  2   force =     0.00019538   -0.00019482   -0.00014119
     atom   60 type  2   force =    -0.00019537   -0.00020923    0.00014334
     atom   61 type  2   force =     0.00004798    0.00005479   -0.00024416
     atom   62 type  2   force =    -0.00004564    0.00005498    0.00024329
     atom   63 type  2   force =    -0.00004798   -0.00005479    0.00024416
     atom   64 type  2   force =     0.00004564   -0.00005498   -0.00024329
     atom   65 type  2   force =     0.00000408    0.00027183    0.00001976
     atom   66 type  2   force =    -0.00000410    0.00026491   -0.00003286
     atom   67 type  2   force =    -0.00000408   -0.00027183   -0.00001976
     atom   68 type  2   force =     0.00000410   -0.00026491    0.00003286
     atom   69 type  2   force =     0.00030481    0.00017046    0.00030030
     atom   70 type  2   force =    -0.00030413    0.00016848   -0.00029643
     atom   71 type  2   force =    -0.00030481   -0.00017046   -0.00030030
     atom   72 type  2   force =     0.00030413   -0.00016848    0.00029643
     atom   73 type  2   force =     0.00012586   -0.00017026   -0.00016939
     atom   74 type  2   force =    -0.00012545   -0.00017703    0.00016581
     atom   75 type  2   force =    -0.00012586    0.00017026    0.00016939
     atom   76 type  2   force =     0.00012545    0.00017703   -0.00016581
     atom   77 type  2   force =    -0.00002940   -0.00021233    0.00023984
     atom   78 type  2   force =     0.00003588   -0.00021148   -0.00024351
     atom   79 type  2   force =     0.00002940    0.00021233   -0.00023984
     atom   80 type  2   force =    -0.00003588    0.00021148    0.00024351
     atom   81 type  2   force =    -0.00004870    0.00021967    0.00016939
     atom   82 type  2   force =     0.00005454    0.00022337   -0.00016724
     atom   83 type  2   force =     0.00004870   -0.00021967   -0.00016939
     atom   84 type  2   force =    -0.00005454   -0.00022337    0.00016724
     atom   85 type  2   force =    -0.00017001    0.00017512    0.00016786
     atom   86 type  2   force =     0.00017281    0.00017215   -0.00016319
     atom   87 type  2   force =     0.00017001   -0.00017512   -0.00016786
     atom   88 type  2   force =    -0.00017281   -0.00017215    0.00016319
     atom   89 type  3   force =    -0.00030659    0.00029517   -0.00033014
     atom   90 type  3   force =     0.00030919    0.00029536    0.00033193
     atom   91 type  3   force =     0.00030659   -0.00029517    0.00033014
     atom   92 type  3   force =    -0.00030919   -0.00029536   -0.00033193
     SCF correction compared to forces is large: reduce conv_thr to get better values


     entering subroutine stress ...

          total   stress  (Ry/bohr**3)                   (kbar)     P=   -0.28
  -0.00000166  -0.00000002   0.00000183         -0.24      0.00      0.27
  -0.00000002  -0.00000134  -0.00000015          0.00     -0.20     -0.02
   0.00000183  -0.00000015  -0.00000277          0.27     -0.02     -0.41


     Writing output data file fepxas.save
 
     init_run     :     81.14s CPU     84.33s WALL (       2 calls)
     electrons    :   3767.27s CPU   3850.74s WALL (       2 calls)
     forces       :     86.23s CPU     87.01s WALL (       2 calls)
     stress       :    262.30s CPU    263.56s WALL (       2 calls)

     Called by init_run:
     wfcinit      :     23.53s CPU     24.20s WALL (       2 calls)
     potinit      :     17.70s CPU     17.95s WALL (       2 calls)

     Called by electrons:
     c_bands      :   1476.80s CPU   1509.12s WALL (      60 calls)
     sum_band     :    948.66s CPU    967.27s WALL (      60 calls)
     v_of_rho     :     54.32s CPU     54.77s WALL (      62 calls)
     newd         :    511.73s CPU    518.27s WALL (      62 calls)
     mix_rho      :     29.47s CPU     31.55s WALL (      60 calls)

     Called by c_bands:
     init_us_2    :      5.88s CPU      5.95s WALL (     122 calls)
     cegterg      :   1463.00s CPU   1495.31s WALL (      60 calls)

     Called by *egterg:
     h_psi        :    884.59s CPU    900.26s WALL (     333 calls)
     s_psi        :    137.16s CPU    137.27s WALL (     333 calls)
     g_psi        :      3.74s CPU      3.73s WALL (     271 calls)
     cdiaghg      :    147.32s CPU    147.45s WALL (     331 calls)

     Called by h_psi:
     add_vuspsi   :    136.74s CPU    136.86s WALL (     333 calls)

     General routines
     calbec       :    192.10s CPU    195.26s WALL (     397 calls)
     fft          :     44.92s CPU     55.75s WALL (    1848 calls)
     ffts         :      2.46s CPU      2.52s WALL (     244 calls)
     fftw         :    941.00s CPU    963.76s WALL (  133326 calls)
     interpolate  :      9.35s CPU      9.52s WALL (     244 calls)
     davcio       :      0.00s CPU      5.19s WALL (      60 calls)
 
     Parallel routines
     fft_scatter  :    178.03s CPU    210.49s WALL (  135418 calls)
 
     PAW routines
     PAW_pot      :     27.33s CPU     31.71s WALL (      62 calls)
     PAW_ddot     :     17.04s CPU     18.95s WALL (    2132 calls)
     PAW_symme    :      0.01s CPU      0.02s WALL (     122 calls)
 
     PWSCF        :     1h 9m CPU        1h11m WALL

 
   This run was terminated on:  13:23: 8  25Oct2012            

=------------------------------------------------------------------------------=
   JOB DONE.
=------------------------------------------------------------------------------=
