
     Program PWSCF v.4.3.2      starts on 19Oct2012 at 21:51:18 

     This program is part of the open-source Quantum ESPRESSO suite
     for quantum simulation of materials; please cite
         "P. Giannozzi et al., J. Phys.:Condens. Matter 21 395502 (2009);
          URL http://www.quantum-espresso.org", 
     in publications or presentations arising from this work. More details at
     http://www.quantum-espresso.org/wiki/index.php/Citing_Quantum-ESPRESSO

     Parallel version (MPI), running on    12 processors
     R & G space division:  proc/pool =   12

     Current dimensions of program PWSCF are:
     Max number of different atomic species (ntypx) = 10
     Max number of k-points (npk) =  40000
     Max angular momentum in pseudopotentials (lmaxx) =  3
     Waiting for input...
     Reading input from stdin
               file c.UPF: wavefunction(s)  2P renormalized
               file h.UPF: wavefunction(s)  1S renormalized
               file o.UPF: wavefunction(s)  2P renormalized

     Subspace diagonalization in iterative solution of the eigenvalue problem:
     a serial algorithm will be used

 
     Parallelization info
     --------------------
     sticks:   dense  smooth     PW     G-vecs:    dense   smooth      PW
     Min        3837    2561    674               145608    79247   10700
     Max        3838    2562    675               145609    79265   10701
     Sum       46053   30737   8089              1747303   951073  128405
 

     Title: 
     fepxas                                                                     


     bravais-lattice index     =            0
     lattice parameter (alat)  =       1.0000  a.u.
     unit-cell volume          =   15146.5234 (a.u.)^3
     number of atoms/cell      =           92
     number of atomic types    =            4
     number of electrons       =       288.00
     number of Kohn-Sham states=          144
     kinetic-energy cutoff     =      60.0000  Ry
     charge density cutoff     =     360.0000  Ry
     convergence threshold     =      1.0E-07
     mixing beta               =       0.7000
     number of iterations used =            8  plain     mixing
     Exchange-correlation      =  NOX  PW   PW86 PBC ( 0 417 4 0)
     EXX-fraction              =        0.00
     nstep                     =           50


     celldm(1)=   1.000000  celldm(2)=   0.000000  celldm(3)=   0.000000
     celldm(4)=   0.000000  celldm(5)=   0.000000  celldm(6)=   0.000000

     crystal axes: (cart. coord. in units of alat)
               a(1) = (  48.163986   0.000555   0.900242 )  
               a(2) = (   0.000487  33.396570   0.003401 )  
               a(3) = (   0.120721   0.000839   9.418738 )  

     reciprocal axes: (cart. coord. in units 2 pi/alat)
               b(1) = (  0.020767  0.000000 -0.000266 )  
               b(2) = (  0.000000  0.029943 -0.000003 )  
               b(3) = ( -0.001985 -0.000011  0.106197 )  


     PseudoPot. # 1 for  C read from file:
     ./c.UPF
     MD5 check sum: 59d3a4af416b94ce846c69cefa103580
     Pseudo is Projector augmented-wave + core cor, Zval =  4.0
     Generated using "atomic" code by A. Dal Corso  (Quantum ESPRESSO distribution)
     Shape of augmentation charge: BESSEL
     Using radial grid of 1073 points,  4 beta functions with: 
                l(1) =   0
                l(2) =   0
                l(3) =   1
                l(4) =   1
     Q(r) pseudized with 0 coefficients 


     PseudoPot. # 2 for  H read from file:
     ./h.UPF
     MD5 check sum: 465503140a8a8e79e3a70d3488897feb
     Pseudo is Projector augmented-wave, Zval =  1.0
     Generated using "atomic" code by A. Dal Corso  (Quantum ESPRESSO distribution)
     Shape of augmentation charge: PSQ
     Using radial grid of  929 points,  2 beta functions with: 
                l(1) =   0
                l(2) =   0
     Q(r) pseudized with 0 coefficients 


     PseudoPot. # 3 for  O read from file:
     ./o.UPF
     MD5 check sum: 7b405463629fa2aaa019ec68516902cf
     Pseudo is Projector augmented-wave + core cor, Zval =  6.0
     Generated using "atomic" code by A. Dal Corso  (Quantum ESPRESSO distribution)
     Shape of augmentation charge: BESSEL
     Using radial grid of 1095 points,  4 beta functions with: 
                l(1) =   0
                l(2) =   0
                l(3) =   1
                l(4) =   1
     Q(r) pseudized with 0 coefficients 


     PseudoPot. # 4 for As read from file:
     ./as.UPF
     MD5 check sum: c4211a47c95e243bf5c6b176bad74a68
     Pseudo is Projector augmented-wave + core cor, Zval =  5.0
     Generated using "atomic" code by A. Dal Corso  (Quantum ESPRESSO distribution)
     Shape of augmentation charge: PSQ
     Using radial grid of 1209 points,  4 beta functions with: 
                l(1) =   0
                l(2) =   0
                l(3) =   1
                l(4) =   1
     Q(r) pseudized with 0 coefficients 


     atomic species   valence    mass     pseudopotential
        c              4.00    12.01070      C( 1.00)
        h              1.00     1.00794      H( 1.00)
        o              6.00    15.99940      O( 1.00)
        as             5.00    74.92160     As( 1.00)

      2 Sym.Ops. (with inversion)


   Cartesian axes

     site n.     atom                  positions (alat units)
         1           c   tau(   1) = (  29.6411100  28.1964892   8.3834896  )
         2           c   tau(   2) = (  42.7862413  11.5016810   7.1001561  )
         3           c   tau(   3) = (  18.6440839   5.2014753   1.9388910  )
         4           c   tau(   4) = (   5.4989526  21.8962835   3.2222245  )
         5           c   tau(   5) = (  30.6669159  29.7510480   6.5001703  )
         6           c   tau(   6) = (  41.7608684  13.0559820   8.9829583  )
         7           c   tau(   7) = (  17.6182779   3.6469165   3.8222103  )
         8           c   tau(   8) = (   6.5243255  20.3419825   1.3394223  )
         9           c   tau(   9) = (  31.2254386  26.7170057   9.8907698  )
        10           c   tau(  10) = (  41.2024957  10.0216808   5.5925440  )
        11           c   tau(  11) = (  17.0597553   6.6809588   0.4316108  )
        12           c   tau(  12) = (   7.0826982  23.3762837   4.7298366  )
        13           c   tau(  13) = (  37.9108012   4.2153767   8.5405172  )
        14           c   tau(  14) = (  34.5169624  20.9166643   6.9391383  )
        15           c   tau(  15) = (  10.3743927  29.1825878   1.7818634  )
        16           c   tau(  16) = (  13.7682315  12.4813002   3.3832423  )
        17           c   tau(  17) = (  36.5416632   3.0332321   6.6094895  )
        18           c   tau(  18) = (  35.8860054  19.7342660   8.8697952  )
        19           c   tau(  19) = (  11.7435307  30.3647324   3.7128911  )
        20           c   tau(  20) = (  12.3991885  13.6636986   1.4525855  )
        21           c   tau(  21) = (  33.2774222  29.8175664   6.1581528  )
        22           c   tau(  22) = (  39.1499292  13.1227932   9.3251628  )
        23           c   tau(  23) = (  15.0077716   3.5803981   4.1642278  )
        24           c   tau(  24) = (   9.1352647  20.2751713   0.9972178  )
        25           c   tau(  25) = (  39.6798751   2.8477198   9.9383389  )
        26           c   tau(  26) = (  32.7475905  19.5492817   5.5416721  )
        27           c   tau(  27) = (   8.6053188  30.5502447   0.3840417  )
        28           c   tau(  28) = (  15.5376034  13.8486828   4.7807085  )
        29           c   tau(  29) = (  33.8484443  26.8037199   9.5534337  )
        30           c   tau(  30) = (  38.5787957  10.1085716   5.9303647  )
        31           c   tau(  31) = (  14.4367496   6.5942446   0.7689469  )
        32           c   tau(  32) = (   9.7063982  23.2893929   4.3920159  )
        33           c   tau(  33) = (  36.8884038   0.4599737   6.1648141  )
        34           c   tau(  34) = (  35.5389945  17.1610462   9.3147698  )
        35           c   tau(  35) = (  11.3967901  32.9379908   4.1575666  )
        36           c   tau(  36) = (  12.7461993  16.2369183   1.0076108  )
        37           c   tau(  37) = (  34.8624177  28.3653917   7.6890768  )
        38           c   tau(  38) = (  37.5651720  11.6702303   7.7943193  )
        39           c   tau(  39) = (  13.4227762   5.0325728   2.6333038  )
        40           c   tau(  40) = (  10.7200218  21.7277343   2.5280613  )
        41           c   tau(  41) = (  40.0277745   0.2646196   9.4855196  )
        42           c   tau(  42) = (  32.3992688  16.9661728   5.9946775  )
        43           c   tau(  43) = (   8.2574194  33.1333449   0.8368610  )
        44           c   tau(  44) = (  15.8859250  16.4317917   4.3277031  )
        45           c   tau(  45) = (  38.5799893  32.4651617   7.6388156  )
        46           c   tau(  46) = (  33.8475293  15.7697246   7.8444143  )
        47           c   tau(  47) = (   9.7052046   0.9328028   2.6835650  )
        48           c   tau(  48) = (  14.4376645  17.6282400   2.4779663  )
        49           as  tau(  49) = (  35.0716259  31.8571030   3.5266880  )
        50           as  tau(  50) = (  37.2349460  15.1613178   2.5379672  )
        51           as  tau(  51) = (  13.2135680   1.5408615   6.7956926  )
        52           as  tau(  52) = (  11.0502478  18.2366468   7.7844134  )
        53           as  tau(  53) = (  38.5617061  28.7436298   6.8790554  )
        54           as  tau(  54) = (  33.8656266  12.0482571   8.6047353  )
        55           as  tau(  55) = (   9.7234877   4.6543347   3.4433252  )
        56           as  tau(  56) = (  14.4195673  21.3497074   1.7176453  )
        57           h   tau(  57) = (  27.6033357  28.1424905   8.6551718  )
        58           h   tau(  58) = (  44.8243423  11.4483761   6.8275397  )
        59           h   tau(  59) = (  20.6818581   5.2554741   1.6672088  )
        60           h   tau(  60) = (   3.4608516  21.9495884   3.4948409  )
        61           h   tau(  61) = (  29.4226796  30.8649768   5.2970397  )
        62           h   tau(  62) = (  43.0049411  14.1702625  10.1861205  )
        63           h   tau(  63) = (  18.8625143   2.5329877   5.0253409  )
        64           h   tau(  64) = (   5.2802527  19.2277020   0.1362602  )
        65           h   tau(  65) = (  37.6282234   6.2133233   8.9158931  )
        66           h   tau(  66) = (  34.7998245  22.9146239   6.5633050  )
        67           h   tau(  67) = (  10.6569704  27.1846412   1.4064875  )
        68           h   tau(  68) = (  13.4853694  10.4833406   3.7590756  )
        69           h   tau(  69) = (  30.3187609  25.4975556   1.9277716  )
        70           h   tau(  70) = (  41.9880557   8.8039785   4.1365497  )
        71           h   tau(  71) = (  17.9664330   7.9004089   8.3946090  )
        72           h   tau(  72) = (   6.2971381  24.5939861   6.1858309  )
        73           h   tau(  73) = (  35.2277775   4.1355963   5.4725430  )
        74           h   tau(  74) = (  37.1998846  20.8366517  10.0069250  )
        75           h   tau(  75) = (  13.0574164  29.2623682   4.8498377  )
        76           h   tau(  76) = (  11.0853093  12.5613128   0.3154556  )
        77           h   tau(  77) = (  40.6514345   3.7786401   1.9890606  )
        78           h   tau(  78) = (  31.6554880  20.4815006   4.0723086  )
        79           h   tau(  79) = (   7.6337594  29.6193244   8.3333200  )
        80           h   tau(  80) = (  16.6297058  12.9164640   6.2500720  )
        81           h   tau(  81) = (  34.9599847  25.6992726   1.3528080  )
        82           h   tau(  82) = (  37.3468004   9.0050727   4.7119693  )
        83           h   tau(  83) = (  13.3252092   7.6986919   8.9695726  )
        84           h   tau(  84) = (  10.9383934  24.3928918   5.6104113  )
        85           h   tau(  85) = (  41.2277776  32.5904091   1.2193307  )
        86           h   tau(  86) = (  31.0788091  15.8966491   4.8454892  )
        87           h   tau(  87) = (   7.0574163   0.8075554   9.1030499  )
        88           h   tau(  88) = (  17.2063847  17.5013155   5.4768914  )
        89           o   tau(  89) = (  37.7137588  29.4551506   3.4961869  )
        90           o   tau(  90) = (  34.5926407  12.7594401   2.5687973  )
        91           o   tau(  91) = (  10.5714351   3.9428139   6.8261937  )
        92           o   tau(  92) = (  13.6925532  20.6385244   7.7535833  )

     number of k points=     1
                       cart. coord. in units 2pi/alat
        k(    1) = (  -0.0108798  -0.0149742   0.0266836), wk =   2.0000000

     Dense  grid:  1747303 G-vectors     FFT dimensions: ( 300, 216,  60)

     Smooth grid:   951073 G-vectors     FFT dimensions: ( 240, 180,  48)

     Largest allocated arrays     est. size (Mb)     dimensions
        Kohn-Sham Wavefunctions        21.81 Mb     (   9927,  144)
        NL pseudopotentials            82.40 Mb     (   9927,  544)
        Each V/rho on FFT grid          4.94 Mb     ( 324000)
        Each G-vector array             1.11 Mb     ( 145609)
        G-vector shells                 1.11 Mb     ( 145609)
     Largest temporary arrays     est. size (Mb)     dimensions
        Auxiliary wavefunctions        87.25 Mb     (   9927,  576)
        Each subspace H/S matrix        5.06 Mb     ( 576, 576)
        Each <psi_i|beta_j> matrix      1.20 Mb     (    544,  144)
        Arrays for rho mixing          39.55 Mb     ( 324000,   8)

     Initial potential from superposition of free atoms

     starting charge  287.99592, renormalised to  288.00000

     negative rho (up, down):  0.102E-05 0.000E+00
     Starting wfc are  272 atomic wfcs
     Checking if some PAW data can be deallocated... 

     total cpu time spent up to now is       55.5 secs

     per-process dynamical memory:   261.6 Mb

     Self-consistent Calculation

     iteration #  1     ecut=    60.00 Ry     beta=0.70
     Davidson diagonalization with overlap
     ethr =  1.00E-02,  avg # of iterations =  7.0

     negative rho (up, down):  0.101E-03 0.000E+00

     total cpu time spent up to now is      118.2 secs

     total energy              =   -2506.96028199 Ry
     Harris-Foulkes estimate   =   -2516.51156872 Ry
     estimated scf accuracy    <      72.90700323 Ry

     iteration #  2     ecut=    60.00 Ry     beta=0.70
     Davidson diagonalization with overlap
     ethr =  1.00E-02,  avg # of iterations =  3.0

     negative rho (up, down):  0.139E-03 0.000E+00

     total cpu time spent up to now is      167.9 secs

     total energy              =   -2507.06269471 Ry
     Harris-Foulkes estimate   =   -2509.49867869 Ry
     estimated scf accuracy    <      20.77662820 Ry

     iteration #  3     ecut=    60.00 Ry     beta=0.70
     Davidson diagonalization with overlap
     ethr =  7.21E-03,  avg # of iterations =  5.0

     negative rho (up, down):  0.416E-03 0.000E+00

     total cpu time spent up to now is      233.9 secs

     total energy              =   -2506.94375409 Ry
     Harris-Foulkes estimate   =   -2518.11985217 Ry
     estimated scf accuracy    <      42.14223498 Ry

     iteration #  4     ecut=    60.00 Ry     beta=0.70
     Davidson diagonalization with overlap
     ethr =  7.21E-03,  avg # of iterations =  7.0

     negative rho (up, down):  0.246E-04 0.000E+00

     total cpu time spent up to now is      288.3 secs

     total energy              =   -2508.48886142 Ry
     Harris-Foulkes estimate   =   -2510.55334322 Ry
     estimated scf accuracy    <       4.23283722 Ry

     iteration #  5     ecut=    60.00 Ry     beta=0.70
     Davidson diagonalization with overlap
     ethr =  1.47E-03,  avg # of iterations =  4.0

     negative rho (up, down):  0.657E-04 0.000E+00

     total cpu time spent up to now is      356.5 secs

     total energy              =   -2510.55263235 Ry
     Harris-Foulkes estimate   =   -2513.93065274 Ry
     estimated scf accuracy    <       7.32889721 Ry

     iteration #  6     ecut=    60.00 Ry     beta=0.70
     Davidson diagonalization with overlap
     ethr =  1.47E-03,  avg # of iterations =  1.0

     negative rho (up, down):  0.345E-03 0.000E+00

     total cpu time spent up to now is      404.2 secs

     total energy              =   -2509.27023723 Ry
     Harris-Foulkes estimate   =   -2510.68277227 Ry
     estimated scf accuracy    <       2.09710074 Ry

     iteration #  7     ecut=    60.00 Ry     beta=0.70
     Davidson diagonalization with overlap
     ethr =  7.28E-04,  avg # of iterations =  5.0

     negative rho (up, down):  0.181E-03 0.000E+00

     total cpu time spent up to now is      478.2 secs

     total energy              =   -2512.83259387 Ry
     Harris-Foulkes estimate   =   -2515.16645783 Ry
     estimated scf accuracy    <      14.57269446 Ry

     iteration #  8     ecut=    60.00 Ry     beta=0.70
     Davidson diagonalization with overlap
     ethr =  7.28E-04,  avg # of iterations =  1.0

     negative rho (up, down):  0.579E-04 0.000E+00

     total cpu time spent up to now is      526.2 secs

     total energy              =   -2509.00043132 Ry
     Harris-Foulkes estimate   =   -2512.86173414 Ry
     estimated scf accuracy    <      10.63559929 Ry

     iteration #  9     ecut=    60.00 Ry     beta=0.70
     Davidson diagonalization with overlap
     ethr =  7.28E-04,  avg # of iterations =  5.0

     negative rho (up, down):  0.559E-04 0.000E+00

     total cpu time spent up to now is      597.4 secs

     total energy              =   -2511.99053038 Ry
     Harris-Foulkes estimate   =   -2511.95487235 Ry
     estimated scf accuracy    <       0.41013476 Ry

     iteration # 10     ecut=    60.00 Ry     beta=0.70
     Davidson diagonalization with overlap
     ethr =  1.42E-04,  avg # of iterations =  2.0

     negative rho (up, down):  0.117E-03 0.000E+00

     total cpu time spent up to now is      646.0 secs

     total energy              =   -2511.74463787 Ry
     Harris-Foulkes estimate   =   -2511.99589110 Ry
     estimated scf accuracy    <       0.47263982 Ry

     iteration # 11     ecut=    60.00 Ry     beta=0.70
     Davidson diagonalization with overlap
     ethr =  1.42E-04,  avg # of iterations =  1.0

     negative rho (up, down):  0.151E-03 0.000E+00

     total cpu time spent up to now is      694.1 secs

     total energy              =   -2511.71179079 Ry
     Harris-Foulkes estimate   =   -2511.75603619 Ry
     estimated scf accuracy    <       0.09729591 Ry

     iteration # 12     ecut=    60.00 Ry     beta=0.70
     Davidson diagonalization with overlap
     ethr =  3.38E-05,  avg # of iterations =  5.0

     negative rho (up, down):  0.155E-03 0.000E+00

     total cpu time spent up to now is      768.2 secs

     total energy              =   -2511.94379784 Ry
     Harris-Foulkes estimate   =   -2511.94558770 Ry
     estimated scf accuracy    <       0.37806633 Ry

     iteration # 13     ecut=    60.00 Ry     beta=0.70
     Davidson diagonalization with overlap
     ethr =  3.38E-05,  avg # of iterations =  1.0

     negative rho (up, down):  0.103E-03 0.000E+00

     total cpu time spent up to now is      816.4 secs

     total energy              =   -2511.78094804 Ry
     Harris-Foulkes estimate   =   -2511.94407316 Ry
     estimated scf accuracy    <       0.37676089 Ry

     iteration # 14     ecut=    60.00 Ry     beta=0.70
     Davidson diagonalization with overlap
     ethr =  3.38E-05,  avg # of iterations =  5.0

     negative rho (up, down):  0.933E-04 0.000E+00

     total cpu time spent up to now is      884.7 secs

     total energy              =   -2511.89415245 Ry
     Harris-Foulkes estimate   =   -2511.87278359 Ry
     estimated scf accuracy    <       0.05730530 Ry

     iteration # 15     ecut=    60.00 Ry     beta=0.70
     Davidson diagonalization with overlap
     ethr =  1.99E-05,  avg # of iterations =  1.0

     negative rho (up, down):  0.953E-04 0.000E+00

     total cpu time spent up to now is      932.9 secs

     total energy              =   -2511.92055233 Ry
     Harris-Foulkes estimate   =   -2511.89519051 Ry
     estimated scf accuracy    <       0.09312728 Ry

     iteration # 16     ecut=    60.00 Ry     beta=0.70
     Davidson diagonalization with overlap
     ethr =  1.99E-05,  avg # of iterations =  5.0

     negative rho (up, down):  0.936E-04 0.000E+00

     total cpu time spent up to now is     1001.3 secs

     total energy              =   -2511.96049568 Ry
     Harris-Foulkes estimate   =   -2511.97031056 Ry
     estimated scf accuracy    <       0.48083570 Ry

     iteration # 17     ecut=    60.00 Ry     beta=0.70
     Davidson diagonalization with overlap
     ethr =  1.99E-05,  avg # of iterations =  1.0

     negative rho (up, down):  0.145E-03 0.000E+00

     total cpu time spent up to now is     1049.4 secs

     total energy              =   -2511.78719197 Ry
     Harris-Foulkes estimate   =   -2511.96068816 Ry
     estimated scf accuracy    <       0.46598600 Ry

     iteration # 18     ecut=    60.00 Ry     beta=0.70
     Davidson diagonalization with overlap
     ethr =  1.99E-05,  avg # of iterations =  5.0

     negative rho (up, down):  0.145E-03 0.000E+00

     total cpu time spent up to now is     1117.3 secs

     total energy              =   -2511.85927382 Ry
     Harris-Foulkes estimate   =   -2511.85994761 Ry
     estimated scf accuracy    <       0.01902092 Ry

     iteration # 19     ecut=    60.00 Ry     beta=0.70
     Davidson diagonalization with overlap
     ethr =  6.60E-06,  avg # of iterations =  1.0

     negative rho (up, down):  0.158E-03 0.000E+00

     total cpu time spent up to now is     1165.5 secs

     total energy              =   -2511.86060233 Ry
     Harris-Foulkes estimate   =   -2511.85960079 Ry
     estimated scf accuracy    <       0.01728701 Ry

     iteration # 20     ecut=    60.00 Ry     beta=0.70
     Davidson diagonalization with overlap
     ethr =  6.00E-06,  avg # of iterations =  4.0

     negative rho (up, down):  0.143E-03 0.000E+00

     total cpu time spent up to now is     1215.6 secs

     total energy              =   -2511.85715352 Ry
     Harris-Foulkes estimate   =   -2511.86171985 Ry
     estimated scf accuracy    <       0.01880780 Ry

     iteration # 21     ecut=    60.00 Ry     beta=0.70
     Davidson diagonalization with overlap
     ethr =  6.00E-06,  avg # of iterations =  3.0

     negative rho (up, down):  0.153E-03 0.000E+00

     total cpu time spent up to now is     1264.9 secs

     total energy              =   -2511.85411380 Ry
     Harris-Foulkes estimate   =   -2511.85797805 Ry
     estimated scf accuracy    <       0.01188927 Ry

     iteration # 22     ecut=    60.00 Ry     beta=0.70
     Davidson diagonalization with overlap
     ethr =  4.13E-06,  avg # of iterations =  5.0

     negative rho (up, down):  0.163E-03 0.000E+00

     total cpu time spent up to now is     1334.1 secs

     total energy              =   -2511.86176676 Ry
     Harris-Foulkes estimate   =   -2511.86556099 Ry
     estimated scf accuracy    <       0.02695310 Ry

     iteration # 23     ecut=    60.00 Ry     beta=0.70
     Davidson diagonalization with overlap
     ethr =  4.13E-06,  avg # of iterations =  1.0

     negative rho (up, down):  0.170E-03 0.000E+00

     total cpu time spent up to now is     1382.2 secs

     total energy              =   -2511.85534315 Ry
     Harris-Foulkes estimate   =   -2511.86184053 Ry
     estimated scf accuracy    <       0.02133855 Ry

     iteration # 24     ecut=    60.00 Ry     beta=0.70
     Davidson diagonalization with overlap
     ethr =  4.13E-06,  avg # of iterations =  7.0

     negative rho (up, down):  0.170E-03 0.000E+00

     total cpu time spent up to now is     1434.2 secs

     total energy              =   -2511.85623624 Ry
     Harris-Foulkes estimate   =   -2511.85665480 Ry
     estimated scf accuracy    <       0.00797439 Ry

     iteration # 25     ecut=    60.00 Ry     beta=0.70
     Davidson diagonalization with overlap
     ethr =  2.77E-06,  avg # of iterations =  7.0

     negative rho (up, down):  0.168E-03 0.000E+00

     total cpu time spent up to now is     1485.6 secs

     total energy              =   -2511.85694313 Ry
     Harris-Foulkes estimate   =   -2511.85682155 Ry
     estimated scf accuracy    <       0.00631524 Ry

     iteration # 26     ecut=    60.00 Ry     beta=0.70
     Davidson diagonalization with overlap
     ethr =  2.19E-06,  avg # of iterations =  1.0

     negative rho (up, down):  0.171E-03 0.000E+00

     total cpu time spent up to now is     1533.8 secs

     total energy              =   -2511.85583999 Ry
     Harris-Foulkes estimate   =   -2511.85712344 Ry
     estimated scf accuracy    <       0.00601371 Ry

     iteration # 27     ecut=    60.00 Ry     beta=0.70
     Davidson diagonalization with overlap
     ethr =  2.09E-06,  avg # of iterations =  5.0

     negative rho (up, down):  0.166E-03 0.000E+00

     total cpu time spent up to now is     1603.0 secs

     total energy              =   -2511.85874053 Ry
     Harris-Foulkes estimate   =   -2511.86050538 Ry
     estimated scf accuracy    <       0.00641996 Ry

     iteration # 28     ecut=    60.00 Ry     beta=0.70
     Davidson diagonalization with overlap
     ethr =  2.09E-06,  avg # of iterations =  1.0

     negative rho (up, down):  0.161E-03 0.000E+00

     total cpu time spent up to now is     1651.2 secs

     total energy              =   -2511.85716627 Ry
     Harris-Foulkes estimate   =   -2511.85879767 Ry
     estimated scf accuracy    <       0.00353002 Ry

     iteration # 29     ecut=    60.00 Ry     beta=0.70
     Davidson diagonalization with overlap
     ethr =  1.23E-06,  avg # of iterations =  5.0

     negative rho (up, down):  0.159E-03 0.000E+00

     total cpu time spent up to now is     1719.9 secs

     total energy              =   -2511.86119003 Ry
     Harris-Foulkes estimate   =   -2511.86159704 Ry
     estimated scf accuracy    <       0.00980747 Ry

     iteration # 30     ecut=    60.00 Ry     beta=0.70
     Davidson diagonalization with overlap
     ethr =  1.23E-06,  avg # of iterations =  1.0

     negative rho (up, down):  0.162E-03 0.000E+00

     total cpu time spent up to now is     1768.0 secs

     total energy              =   -2511.85825258 Ry
     Harris-Foulkes estimate   =   -2511.86121061 Ry
     estimated scf accuracy    <       0.00926497 Ry

     iteration # 31     ecut=    60.00 Ry     beta=0.70
     Davidson diagonalization with overlap
     ethr =  1.23E-06,  avg # of iterations =  2.0

     negative rho (up, down):  0.163E-03 0.000E+00

     total cpu time spent up to now is     1816.4 secs

     total energy              =   -2511.85742518 Ry
     Harris-Foulkes estimate   =   -2511.85836766 Ry
     estimated scf accuracy    <       0.00477448 Ry

     iteration # 32     ecut=    60.00 Ry     beta=0.70
     Davidson diagonalization with overlap
     ethr =  1.23E-06,  avg # of iterations =  6.0

     negative rho (up, down):  0.163E-03 0.000E+00

     total cpu time spent up to now is     1882.7 secs

     total energy              =   -2511.85938332 Ry
     Harris-Foulkes estimate   =   -2511.85961689 Ry
     estimated scf accuracy    <       0.00286226 Ry

     iteration # 33     ecut=    60.00 Ry     beta=0.70
     Davidson diagonalization with overlap
     ethr =  9.94E-07,  avg # of iterations =  1.0

     negative rho (up, down):  0.164E-03 0.000E+00

     total cpu time spent up to now is     1930.8 secs

     total energy              =   -2511.85917879 Ry
     Harris-Foulkes estimate   =   -2511.85939078 Ry
     estimated scf accuracy    <       0.00250134 Ry

     iteration # 34     ecut=    60.00 Ry     beta=0.70
     Davidson diagonalization with overlap
     ethr =  8.69E-07,  avg # of iterations =  1.0

     negative rho (up, down):  0.165E-03 0.000E+00

     total cpu time spent up to now is     1978.9 secs

     total energy              =   -2511.85880195 Ry
     Harris-Foulkes estimate   =   -2511.85919088 Ry
     estimated scf accuracy    <       0.00204160 Ry

     iteration # 35     ecut=    60.00 Ry     beta=0.70
     Davidson diagonalization with overlap
     ethr =  7.09E-07,  avg # of iterations =  1.0

     negative rho (up, down):  0.167E-03 0.000E+00

     total cpu time spent up to now is     2027.0 secs

     total energy              =   -2511.85908208 Ry
     Harris-Foulkes estimate   =   -2511.85883430 Ry
     estimated scf accuracy    <       0.00132713 Ry

     iteration # 36     ecut=    60.00 Ry     beta=0.70
     Davidson diagonalization with overlap
     ethr =  4.61E-07,  avg # of iterations =  8.0

     negative rho (up, down):  0.167E-03 0.000E+00

     total cpu time spent up to now is     2083.3 secs

     total energy              =   -2511.85910634 Ry
     Harris-Foulkes estimate   =   -2511.85946537 Ry
     estimated scf accuracy    <       0.00177086 Ry

     iteration # 37     ecut=    60.00 Ry     beta=0.70
     Davidson diagonalization with overlap
     ethr =  4.61E-07,  avg # of iterations =  1.0

     negative rho (up, down):  0.166E-03 0.000E+00

     total cpu time spent up to now is     2131.5 secs

     total energy              =   -2511.85864051 Ry
     Harris-Foulkes estimate   =   -2511.85912820 Ry
     estimated scf accuracy    <       0.00123269 Ry

     iteration # 38     ecut=    60.00 Ry     beta=0.70
     Davidson diagonalization with overlap
     ethr =  4.28E-07,  avg # of iterations =  7.0

     negative rho (up, down):  0.166E-03 0.000E+00

     total cpu time spent up to now is     2190.2 secs

     total energy              =   -2511.85910525 Ry
     Harris-Foulkes estimate   =   -2511.85913981 Ry
     estimated scf accuracy    <       0.00032155 Ry

     iteration # 39     ecut=    60.00 Ry     beta=0.70
     Davidson diagonalization with overlap
     ethr =  1.12E-07,  avg # of iterations =  4.0

     negative rho (up, down):  0.166E-03 0.000E+00

     total cpu time spent up to now is     2239.9 secs

     total energy              =   -2511.85907214 Ry
     Harris-Foulkes estimate   =   -2511.85912039 Ry
     estimated scf accuracy    <       0.00028799 Ry

     iteration # 40     ecut=    60.00 Ry     beta=0.70
     Davidson diagonalization with overlap
     ethr =  1.00E-07,  avg # of iterations =  1.0

     negative rho (up, down):  0.165E-03 0.000E+00

     total cpu time spent up to now is     2288.0 secs

     total energy              =   -2511.85899995 Ry
     Harris-Foulkes estimate   =   -2511.85907914 Ry
     estimated scf accuracy    <       0.00020689 Ry

     iteration # 41     ecut=    60.00 Ry     beta=0.70
     Davidson diagonalization with overlap
     ethr =  7.18E-08,  avg # of iterations =  7.0

     negative rho (up, down):  0.165E-03 0.000E+00

     total cpu time spent up to now is     2348.6 secs

     total energy              =   -2511.85912402 Ry
     Harris-Foulkes estimate   =   -2511.85912454 Ry
     estimated scf accuracy    <       0.00011495 Ry

     iteration # 42     ecut=    60.00 Ry     beta=0.70
     Davidson diagonalization with overlap
     ethr =  3.99E-08,  avg # of iterations =  1.0

     negative rho (up, down):  0.165E-03 0.000E+00

     total cpu time spent up to now is     2396.7 secs

     total energy              =   -2511.85912095 Ry
     Harris-Foulkes estimate   =   -2511.85912605 Ry
     estimated scf accuracy    <       0.00011373 Ry

     iteration # 43     ecut=    60.00 Ry     beta=0.70
     Davidson diagonalization with overlap
     ethr =  3.95E-08,  avg # of iterations =  1.0

     negative rho (up, down):  0.166E-03 0.000E+00

     total cpu time spent up to now is     2444.9 secs

     total energy              =   -2511.85910923 Ry
     Harris-Foulkes estimate   =   -2511.85912195 Ry
     estimated scf accuracy    <       0.00010630 Ry

     iteration # 44     ecut=    60.00 Ry     beta=0.70
     Davidson diagonalization with overlap
     ethr =  3.69E-08,  avg # of iterations =  1.0

     negative rho (up, down):  0.166E-03 0.000E+00

     total cpu time spent up to now is     2493.0 secs

     total energy              =   -2511.85908406 Ry
     Harris-Foulkes estimate   =   -2511.85911071 Ry
     estimated scf accuracy    <       0.00008516 Ry

     iteration # 45     ecut=    60.00 Ry     beta=0.70
     Davidson diagonalization with overlap
     ethr =  2.96E-08,  avg # of iterations =  8.0

     negative rho (up, down):  0.165E-03 0.000E+00

     total cpu time spent up to now is     2550.9 secs

     total energy              =   -2511.85910667 Ry
     Harris-Foulkes estimate   =   -2511.85911257 Ry
     estimated scf accuracy    <       0.00004024 Ry

     iteration # 46     ecut=    60.00 Ry     beta=0.70
     Davidson diagonalization with overlap
     ethr =  1.40E-08,  avg # of iterations =  2.0

     negative rho (up, down):  0.165E-03 0.000E+00

     total cpu time spent up to now is     2599.3 secs

     total energy              =   -2511.85909617 Ry
     Harris-Foulkes estimate   =   -2511.85910795 Ry
     estimated scf accuracy    <       0.00003190 Ry

     iteration # 47     ecut=    60.00 Ry     beta=0.70
     Davidson diagonalization with overlap
     ethr =  1.11E-08,  avg # of iterations =  9.0

     negative rho (up, down):  0.165E-03 0.000E+00

     total cpu time spent up to now is     2663.5 secs

     total energy              =   -2511.85910897 Ry
     Harris-Foulkes estimate   =   -2511.85911769 Ry
     estimated scf accuracy    <       0.00004859 Ry

     iteration # 48     ecut=    60.00 Ry     beta=0.70
     Davidson diagonalization with overlap
     ethr =  1.11E-08,  avg # of iterations =  1.0

     negative rho (up, down):  0.165E-03 0.000E+00

     total cpu time spent up to now is     2711.6 secs

     total energy              =   -2511.85909897 Ry
     Harris-Foulkes estimate   =   -2511.85910931 Ry
     estimated scf accuracy    <       0.00003584 Ry

     iteration # 49     ecut=    60.00 Ry     beta=0.70
     Davidson diagonalization with overlap
     ethr =  1.11E-08,  avg # of iterations =  1.0

     negative rho (up, down):  0.165E-03 0.000E+00

     total cpu time spent up to now is     2759.8 secs

     total energy              =   -2511.85908800 Ry
     Harris-Foulkes estimate   =   -2511.85909983 Ry
     estimated scf accuracy    <       0.00001873 Ry

     iteration # 50     ecut=    60.00 Ry     beta=0.70
     Davidson diagonalization with overlap
     ethr =  6.50E-09,  avg # of iterations =  5.0

     negative rho (up, down):  0.165E-03 0.000E+00

     total cpu time spent up to now is     2831.3 secs

     total energy              =   -2511.85911306 Ry
     Harris-Foulkes estimate   =   -2511.85913131 Ry
     estimated scf accuracy    <       0.00011103 Ry

     iteration # 51     ecut=    60.00 Ry     beta=0.70
     Davidson diagonalization with overlap
     ethr =  6.50E-09,  avg # of iterations =  1.0

     negative rho (up, down):  0.165E-03 0.000E+00

     total cpu time spent up to now is     2879.5 secs

     total energy              =   -2511.85909230 Ry
     Harris-Foulkes estimate   =   -2511.85911331 Ry
     estimated scf accuracy    <       0.00008402 Ry

     iteration # 52     ecut=    60.00 Ry     beta=0.70
     Davidson diagonalization with overlap
     ethr =  6.50E-09,  avg # of iterations =  6.0

     negative rho (up, down):  0.165E-03 0.000E+00

     total cpu time spent up to now is     2945.5 secs

     total energy              =   -2511.85910879 Ry
     Harris-Foulkes estimate   =   -2511.85910884 Ry
     estimated scf accuracy    <       0.00000661 Ry

     iteration # 53     ecut=    60.00 Ry     beta=0.70
     Davidson diagonalization with overlap
     ethr =  2.29E-09,  avg # of iterations =  3.0

     negative rho (up, down):  0.165E-03 0.000E+00

     total cpu time spent up to now is     2994.6 secs

     total energy              =   -2511.85910621 Ry
     Harris-Foulkes estimate   =   -2511.85910897 Ry
     estimated scf accuracy    <       0.00000641 Ry

     iteration # 54     ecut=    60.00 Ry     beta=0.70
     Davidson diagonalization with overlap
     ethr =  2.22E-09,  avg # of iterations = 11.0

     negative rho (up, down):  0.165E-03 0.000E+00

     total cpu time spent up to now is     3051.8 secs

     total energy              =   -2511.85910677 Ry
     Harris-Foulkes estimate   =   -2511.85910819 Ry
     estimated scf accuracy    <       0.00000292 Ry

     iteration # 55     ecut=    60.00 Ry     beta=0.70
     Davidson diagonalization with overlap
     ethr =  1.01E-09,  avg # of iterations =  3.0

     negative rho (up, down):  0.165E-03 0.000E+00

     total cpu time spent up to now is     3100.5 secs

     total energy              =   -2511.85910651 Ry
     Harris-Foulkes estimate   =   -2511.85910687 Ry
     estimated scf accuracy    <       0.00000091 Ry

     iteration # 56     ecut=    60.00 Ry     beta=0.70
     Davidson diagonalization with overlap
     ethr =  3.16E-10,  avg # of iterations =  5.0

     negative rho (up, down):  0.165E-03 0.000E+00

     total cpu time spent up to now is     3172.8 secs

     total energy              =   -2511.85910916 Ry
     Harris-Foulkes estimate   =   -2511.85910854 Ry
     estimated scf accuracy    <       0.00000320 Ry

     iteration # 57     ecut=    60.00 Ry     beta=0.70
     Davidson diagonalization with overlap
     ethr =  3.16E-10,  avg # of iterations =  4.0

     negative rho (up, down):  0.165E-03 0.000E+00

     total cpu time spent up to now is     3222.2 secs

     total energy              =   -2511.85910908 Ry
     Harris-Foulkes estimate   =   -2511.85910919 Ry
     estimated scf accuracy    <       0.00000427 Ry

     iteration # 58     ecut=    60.00 Ry     beta=0.70
     Davidson diagonalization with overlap
     ethr =  3.16E-10,  avg # of iterations =  1.0

     negative rho (up, down):  0.165E-03 0.000E+00

     total cpu time spent up to now is     3270.3 secs

     total energy              =   -2511.85911043 Ry
     Harris-Foulkes estimate   =   -2511.85910909 Ry
     estimated scf accuracy    <       0.00000413 Ry

     iteration # 59     ecut=    60.00 Ry     beta=0.70
     Davidson diagonalization with overlap
     ethr =  3.16E-10,  avg # of iterations =  6.0

     negative rho (up, down):  0.165E-03 0.000E+00

     total cpu time spent up to now is     3339.0 secs

     total energy              =   -2511.85910931 Ry
     Harris-Foulkes estimate   =   -2511.85911171 Ry
     estimated scf accuracy    <       0.00002089 Ry

     iteration # 60     ecut=    60.00 Ry     beta=0.70
     Davidson diagonalization with overlap
     ethr =  3.16E-10,  avg # of iterations =  3.0

     negative rho (up, down):  0.165E-03 0.000E+00

     total cpu time spent up to now is     3387.7 secs

     total energy              =   -2511.85911037 Ry
     Harris-Foulkes estimate   =   -2511.85910933 Ry
     estimated scf accuracy    <       0.00001721 Ry

     iteration # 61     ecut=    60.00 Ry     beta=0.70
     Davidson diagonalization with overlap
     ethr =  3.16E-10,  avg # of iterations =  1.0

     negative rho (up, down):  0.165E-03 0.000E+00

     total cpu time spent up to now is     3435.8 secs

     total energy              =   -2511.85910885 Ry
     Harris-Foulkes estimate   =   -2511.85911038 Ry
     estimated scf accuracy    <       0.00001862 Ry

     iteration # 62     ecut=    60.00 Ry     beta=0.70
     Davidson diagonalization with overlap
     ethr =  3.16E-10,  avg # of iterations =  9.0

     negative rho (up, down):  0.165E-03 0.000E+00

     total cpu time spent up to now is     3486.2 secs

     total energy              =   -2511.85911320 Ry
     Harris-Foulkes estimate   =   -2511.85910891 Ry
     estimated scf accuracy    <       0.00001574 Ry

     iteration # 63     ecut=    60.00 Ry     beta=0.70
     Davidson diagonalization with overlap
     ethr =  3.16E-10,  avg # of iterations =  6.0

     negative rho (up, down):  0.165E-03 0.000E+00

     total cpu time spent up to now is     3541.7 secs

     total energy              =   -2511.85910703 Ry
     Harris-Foulkes estimate   =   -2511.85911348 Ry
     estimated scf accuracy    <       0.00002890 Ry

     iteration # 64     ecut=    60.00 Ry     beta=0.70
     Davidson diagonalization with overlap
     ethr =  3.16E-10,  avg # of iterations =  6.0

     negative rho (up, down):  0.165E-03 0.000E+00

     total cpu time spent up to now is     3610.7 secs

     total energy              =   -2511.85910599 Ry
     Harris-Foulkes estimate   =   -2511.85910864 Ry
     estimated scf accuracy    <       0.00000419 Ry

     iteration # 65     ecut=    60.00 Ry     beta=0.70
     Davidson diagonalization with overlap
     ethr =  3.16E-10,  avg # of iterations =  5.0

     negative rho (up, down):  0.165E-03 0.000E+00

     total cpu time spent up to now is     3686.0 secs

     total energy              =   -2511.85910670 Ry
     Harris-Foulkes estimate   =   -2511.85910980 Ry
     estimated scf accuracy    <       0.00001023 Ry

     iteration # 66     ecut=    60.00 Ry     beta=0.70
     Davidson diagonalization with overlap
     ethr =  3.16E-10,  avg # of iterations =  6.0

     negative rho (up, down):  0.165E-03 0.000E+00

     total cpu time spent up to now is     3755.5 secs

     total energy              =   -2511.85910783 Ry
     Harris-Foulkes estimate   =   -2511.85910789 Ry
     estimated scf accuracy    <       0.00000025 Ry

     iteration # 67     ecut=    60.00 Ry     beta=0.70
     Davidson diagonalization with overlap
     ethr =  8.67E-11,  avg # of iterations =  1.0

     negative rho (up, down):  0.165E-03 0.000E+00

     total cpu time spent up to now is     3803.5 secs

     total energy              =   -2511.85910818 Ry
     Harris-Foulkes estimate   =   -2511.85910783 Ry
     estimated scf accuracy    <       0.00000014 Ry

     iteration # 68     ecut=    60.00 Ry     beta=0.70
     Davidson diagonalization with overlap
     ethr =  4.90E-11,  avg # of iterations =  5.0

     negative rho (up, down):  0.165E-03 0.000E+00

     total cpu time spent up to now is     3879.3 secs

     total energy              =   -2511.85910684 Ry
     Harris-Foulkes estimate   =   -2511.85910921 Ry
     estimated scf accuracy    <       0.00000711 Ry

     iteration # 69     ecut=    60.00 Ry     beta=0.70
     Davidson diagonalization with overlap
     ethr =  4.90E-11,  avg # of iterations =  5.0

     negative rho (up, down):  0.165E-03 0.000E+00

     total cpu time spent up to now is     3954.0 secs

     End of self-consistent calculation

          k =-0.0109-0.0150 0.0267 (118882 PWs)   bands (ev):

   -20.2560 -20.2560 -20.2559 -20.2559 -18.0454 -18.0454 -18.0451 -18.0451
   -17.9365 -17.9365 -17.9365 -17.9365 -15.4893 -15.4893 -15.4891 -15.4891
   -15.3578 -15.3578 -15.3575 -15.3575 -15.1839 -15.1839 -15.1836 -15.1836
   -14.9918 -14.9918 -14.9916 -14.9916 -12.9177 -12.9177 -12.9175 -12.9175
   -12.2211 -12.2211 -12.2211 -12.2211 -11.5296 -11.5296 -11.5292 -11.5292
   -11.2666 -11.2666 -11.2663 -11.2663 -10.8471 -10.8471 -10.8468 -10.8467
   -10.5353 -10.5353 -10.5351 -10.5351  -9.2553  -9.2553  -9.2550  -9.2550
    -8.4598  -8.4597  -8.4595  -8.4595  -7.9960  -7.9960  -7.9959  -7.9959
    -7.7479  -7.7479  -7.7477  -7.7477  -7.5808  -7.5808  -7.5805  -7.5805
    -7.4893  -7.4892  -7.4887  -7.4887  -6.8647  -6.8646  -6.8645  -6.8645
    -6.7032  -6.7031  -6.7030  -6.7029  -6.5325  -6.5325  -6.5322  -6.5322
    -6.3070  -6.3069  -6.3068  -6.3068  -5.7852  -5.7851  -5.7846  -5.7845
    -5.6793  -5.6792  -5.6789  -5.6789  -5.4399  -5.4399  -5.4397  -5.4396
    -4.8841  -4.8840  -4.8836  -4.8836  -4.6985  -4.6985  -4.6983  -4.6983
    -3.9951  -3.9950  -3.9947  -3.9946  -3.9496  -3.9496  -3.9492  -3.9492
    -3.3418  -3.3418  -3.3416  -3.3415  -3.2592  -3.2592  -3.2590  -3.2590
    -2.9705  -2.9704  -2.9701  -2.9700  -2.8989  -2.8989  -2.8987  -2.8986
    -2.6918  -2.6917  -2.6916  -2.6915  -2.5792  -2.5791  -2.5791  -2.5790
 TIME (initial):        0.0
* Atoms contributing density to the main cell
  Number of atoms:   20700
 
 TIME (set up the environment):        0.1
 DOCALC: T F T T
 ESAVE:       0.000000000000       0.000000000000       0.000000000000
* XDM: using PAW all-electron density reconstruction? T
 TIME (promolecular grid):       60.3
 TIME (calculation of b grid):       61.6
 TIME (calculation of volumes and moments):      431.4
 
+ Volume and moments
# All results in atomic units.
# i              V                  Vfree                 M1                  M2                  M3
  1        31.3077067268        39.0349749523         4.1829949002        53.6640924086       906.4830962204
  2        31.3087860839        39.0349749523         4.1828815305        53.6636514226       906.4327140719
  3        31.3077067268        39.0349749523         4.1829949002        53.6640924086       906.4830962205
  4        31.3087860839        39.0349749523         4.1828815305        53.6636514226       906.4327140719
  5        31.9515136104        39.0349749523         4.1792258607        54.2270878804       939.0439930279
  6        31.9514163229        39.0349749523         4.1791001317        54.2254462329       939.0003123724
  7        31.9515136104        39.0349749523         4.1792258607        54.2270878804       939.0439930279
  8        31.9514163229        39.0349749523         4.1791001317        54.2254462329       939.0003123724
  9        31.7667979191        39.0349749523         4.1320212235        53.5995037394       944.5268722600
 10        31.7657879027        39.0349749523         4.1325069187        53.6019881602       944.4646718244
 11        31.7667979191        39.0349749523         4.1320212235        53.5995037394       944.5268722600
 12        31.7657879027        39.0349749523         4.1325069187        53.6019881602       944.4646718244
 13        32.0323419500        39.0349749523         4.1715166348        54.7301638752       986.2431014830
 14        32.0339488906        39.0349749523         4.1712326261        54.7290724496       986.3230404954
 15        32.0323419500        39.0349749523         4.1715166348        54.7301638752       986.2431014830
 16        32.0339488906        39.0349749523         4.1712326261        54.7290724496       986.3230404954
 17        32.2593363702        39.0349749523         4.1739029129        54.6715032130       982.4969075799
 18        32.2606638354        39.0349749523         4.1738537754        54.6750638876       982.6661225749
 19        32.2593363702        39.0349749523         4.1739029129        54.6715032130       982.4969075799
 20        32.2606638354        39.0349749523         4.1738537754        54.6750638876       982.6661225749
 21        33.4988149829        39.0349749523         3.7982242357        50.5294648094       960.0854903900
 22        33.4988122409        39.0349749523         3.7983812493        50.5304279650       960.0800749955
 23        33.4988149829        39.0349749523         3.7982242357        50.5294648094       960.0854903900
 24        33.4988122409        39.0349749523         3.7983812493        50.5304279650       960.0800749955
 25        31.8409353995        39.0349749523         4.1429867391        53.8906460199       950.8648291115
 26        31.8414917290        39.0349749523         4.1429448426        53.8896567975       950.8726588220
 27        31.8409353995        39.0349749523         4.1429867391        53.8906460199       950.8648291115
 28        31.8414917290        39.0349749523         4.1429448426        53.8896567975       950.8726588219
 29        32.6630018095        39.0349749523         4.0059689761        52.8275816673       975.7605804065
 30        32.6624168248        39.0349749523         4.0063024704        52.8300736315       975.7319710562
 31        32.6630018095        39.0349749523         4.0059689761        52.8275816673       975.7605804065
 32        32.6624168248        39.0349749523         4.0063024704        52.8300736315       975.7319710562
 33        33.5414453357        39.0349749523         3.7959370878        50.6259315030       964.9044386601
 34        33.5415096854        39.0349749523         3.7958372508        50.6267108399       964.9757750837
 35        33.5414453357        39.0349749523         3.7959370878        50.6259315030       964.9044386602
 36        33.5415096854        39.0349749523         3.7958372508        50.6267108399       964.9757750837
 37        33.6729043785        39.0349749523         3.7462613596        49.8366059272       964.3299725767
 38        33.6726838035        39.0349749523         3.7464187583        49.8383166927       964.3237621348
 39        33.6729043785        39.0349749523         3.7462613596        49.8366059272       964.3299725767
 40        33.6726838035        39.0349749523         3.7464187583        49.8383166927       964.3237621348
 41        32.3791938659        39.0349749523         4.0914330520        53.2598535314       939.6660736412
 42        32.3788954245        39.0349749523         4.0915233422        53.2596820877       939.6575692918
 43        32.3791938659        39.0349749523         4.0914330520        53.2598535314       939.6660736412
 44        32.3788954245        39.0349749523         4.0915233422        53.2596820877       939.6575692918
 45        33.6361211316        39.0349749523         3.7849756693        50.3565431767       957.3611261360
 46        33.6360630402        39.0349749523         3.7850502541        50.3574803982       957.3979427980
 47        33.6361211316        39.0349749523         3.7849756693        50.3565431767       957.3611261360
 48        33.6360630402        39.0349749523         3.7850502541        50.3574803982       957.3979427980
 49        92.1831974056       114.0071219785         7.6780868479       155.3992967683      3639.4883892375
 50        92.1829812653       114.0071219785         7.6778381170       155.3978367700      3639.6340901001
 51        92.1831974056       114.0071219785         7.6780868479       155.3992967683      3639.4883892376
 52        92.1829812653       114.0071219785         7.6778381170       155.3978367701      3639.6340901001
 53        92.1131468670       114.0071219785         8.2873190299       166.1330819097      3734.6880211318
 54        92.1129447856       114.0071219785         8.2878813689       166.1502198948      3735.2351731865
 55        92.1131468670       114.0071219785         8.2873190299       166.1330819097      3734.6880211319
 56        92.1129447856       114.0071219785         8.2878813689       166.1502198948      3735.2351731864
 57         6.3336610536        10.4882987305         1.5867126220        12.4746508342       207.4463926827
 58         6.3341665319        10.4882987305         1.5868828420        12.4738150994       207.3929625077
 59         6.3336610536        10.4882987305         1.5867126220        12.4746508342       207.4463926827
 60         6.3341665319        10.4882987305         1.5868828420        12.4738150994       207.3929625077
 61         6.8146242234        10.4882987305         1.6260827619        13.5976117427       239.3957930348
 62         6.8145550335        10.4882987305         1.6260738872        13.5969235131       239.3745797362
 63         6.8146242234        10.4882987305         1.6260827619        13.5976117427       239.3957930348
 64         6.8145550335        10.4882987305         1.6260738872        13.5969235131       239.3745797363
 65         7.4448024621        10.4882987305         1.6167322242        14.5610164677       279.9305011083
 66         7.4466265078        10.4882987305         1.6166329144        14.5613210697       279.9656797769
 67         7.4448024621        10.4882987305         1.6167322242        14.5610164677       279.9305011083
 68         7.4466265078        10.4882987305         1.6166329144        14.5613210697       279.9656797769
 69         6.8532954716        10.4882987305         1.5958298936        13.5961812191       249.8331254018
 70         6.8525638376        10.4882987305         1.5956146727        13.5949264630       249.8100055603
 71         6.8532954716        10.4882987305         1.5958298936        13.5961812191       249.8331254018
 72         6.8525638376        10.4882987305         1.5956146727        13.5949264630       249.8100055603
 73         7.0983722156        10.4882987305         1.6277872586        14.2318479991       271.4611988108
 74         7.0996231417        10.4882987305         1.6279702935        14.2361993524       271.5696039477
 75         7.0983722156        10.4882987305         1.6277872586        14.2318479991       271.4611988108
 76         7.0996231417        10.4882987305         1.6279702935        14.2361993524       271.5696039477
 77         6.8927293471        10.4882987305         1.5946233221        13.6567667214       252.9460067726
 78         6.8937326521        10.4882987305         1.5946477561        13.6579433466       252.9736030841
 79         6.8927293471        10.4882987305         1.5946233221        13.6567667214       252.9460067726
 80         6.8937326521        10.4882987305         1.5946477561        13.6579433466       252.9736030841
 81         7.5706307908        10.4882987305         1.5776295208        14.2469999391       279.6975323847
 82         7.5697164946        10.4882987305         1.5775923094        14.2462273299       279.6724717271
 83         7.5706307908        10.4882987305         1.5776295208        14.2469999391       279.6975323846
 84         7.5697164946        10.4882987305         1.5775923094        14.2462273299       279.6724717271
 85         7.1649914158        10.4882987305         1.5902248093        13.6094552008       246.8594003717
 86         7.1647333025        10.4882987305         1.5902209161        13.6088905628       246.8614821922
 87         7.1649914158        10.4882987305         1.5902248093        13.6094552008       246.8594003718
 88         7.1647333025        10.4882987305         1.5902209161        13.6088905628       246.8614821922
 89        22.0903733527        23.7788846669         4.5661533361        34.0804827247       341.9334157300
 90        22.0903538743        23.7788846669         4.5661924312        34.0807004218       341.9371643268
 91        22.0903733527        23.7788846669         4.5661533361        34.0804827247       341.9334157300
 92        22.0903538743        23.7788846669         4.5661924312        34.0807004218       341.9371643268
 
+ Dispersion coefficients
# All results in atomic units.
# i   j              C6                  C8                  C10                   Rc                  Rvdw
  1   1        19.9234234721       766.7992410706     31042.4489980053         6.2830588635         7.1193590378
  2   1        19.9234969031       766.8093079654     31042.5775969512         6.2830593375         7.1193592295
  2   2        19.9235703534       766.8193756509     31042.7062307627         6.2830598118         7.1193594214
  3   1        19.9234234721       766.7992410706     31042.4489980054         6.2830588635         7.1193590378
  3   2        19.9234969031       766.8093079654     31042.5775969513         6.2830593375         7.1193592295
  3   3        19.9234234721       766.7992410706     31042.4489980056         6.2830588635         7.1193590378
  4   1        19.9234969031       766.8093079654     31042.5775969512         6.2830593375         7.1193592295
  4   2        19.9235703534       766.8193756509     31042.7062307628         6.2830598118         7.1193594214
  4   3        19.9234969031       766.8093079654     31042.5775969513         6.2830593375         7.1193592295
  4   4        19.9235703534       766.8193756509     31042.7062307628         6.2830598118         7.1193594214
  5   1        20.1170261559       778.6646527193     31823.9943926494         6.3070240081         7.1290529388
  5   2        20.1171068834       778.6750885082     31824.1394181691         6.3070246057         7.1290531805
  5   3        20.1170261559       778.6646527193     31823.9943926495         6.3070240081         7.1290529388
  5   4        20.1171068834       778.6750885082     31824.1394181691         6.3070246057         7.1290531805
  5   5        20.3148047698       790.7775795655     32623.3081246774         6.3308114072         7.1386749417
  6   1        20.1166900321       778.6515683368     31823.3114502796         6.3070164508         7.1290498818
  6   2        20.1167707665       778.6620042752     31823.4564859645         6.3070170483         7.1290501235
  6   3        20.1166900321       778.6515683368     31823.3114502797         6.3070164508         7.1290498818
  6   4        20.1167707665       778.6620042752     31823.4564859645         6.3070170483         7.1290501235
  6   5        20.3144682603       790.7644056907     32622.6149972518         6.3308039286         7.1386719166
  6   6        20.3141317601       790.7512321800     32621.9218898010         6.3307964499         7.1386688915
  7   1        20.1170261559       778.6646527193     31823.9943926501         6.3070240081         7.1290529388
  7   2        20.1171068834       778.6750885082     31824.1394181697         6.3070246057         7.1290531805
  7   3        20.1170261559       778.6646527193     31823.9943926502         6.3070240081         7.1290529388
  7   4        20.1171068834       778.6750885082     31824.1394181698         6.3070246057         7.1290531805
  7   5        20.3148047698       790.7775795655     32623.3081246781         6.3308114072         7.1386749417
  7   6        20.3144682603       790.7644056907     32622.6149972524         6.3308039286         7.1386719166
  7   7        20.3148047698       790.7775795655     32623.3081246788         6.3308114072         7.1386749417
  8   1        20.1166900321       778.6515683369     31823.3114502797         6.3070164508         7.1290498818
  8   2        20.1167707665       778.6620042752     31823.4564859646         6.3070170483         7.1290501235
  8   3        20.1166900321       778.6515683369     31823.3114502798         6.3070164508         7.1290498818
  8   4        20.1167707665       778.6620042752     31823.4564859647         6.3070170483         7.1290501235
  8   5        20.3144682603       790.7644056907     32622.6149972519         6.3308039286         7.1386719166
  8   6        20.3141317601       790.7512321800     32621.9218898011         6.3307964499         7.1386688915
  8   7        20.3144682603       790.7644056908     32622.6149972526         6.3308039286         7.1386719166
  8   8        20.3141317601       790.7512321800     32621.9218898013         6.3307964499         7.1386688915
  9   1        19.9445214033       771.8783320635     31702.4999059292         6.3146524315         7.1321386360
  9   2        19.9446031459       771.8887440028     31702.6469351454         6.3146529975         7.1321388650
  9   3        19.9445214033       771.8783320635     31702.4999059294         6.3146524315         7.1321386360
  9   4        19.9446031459       771.8887440028     31702.6469351454         6.3146529975         7.1321388650
  9   5        20.1411992744       783.9094824173     32497.3631294419         6.3383572985         7.1417272547
  9   6        20.1408663978       783.8964524211     32496.6746159362         6.3383498403         7.1417242379
  9   7        20.1411992744       783.9094824173     32497.3631294425         6.3383572985         7.1417272547
  9   8        20.1408663978       783.8964524211     32496.6746159364         6.3383498403         7.1417242379
  9   9        19.9692317798       777.1070298675     32371.4396699324         6.3458833449         7.1447715405
 10   1        19.9453963766       771.8845687558     31701.2262228901         6.3145195571         7.1320848883
 10   2        19.9454780768       771.8949792645     31701.3731560294         6.3145201223         7.1320851169
 10   3        19.9453963766       771.8845687558     31701.2262228902         6.3145195571         7.1320848883
 10   4        19.9454780768       771.8949792645     31701.3731560294         6.3145201223         7.1320851169
 10   5        20.1420668928       783.9153524416     32496.0608289858         6.3382253406         7.1416738778
 10   6        20.1417339816       783.9023215538     32495.3722978692         6.3382178820         7.1416708607
 10   7        20.1420668928       783.9153524416     32496.0608289865         6.3382253406         7.1416738778
 10   8        20.1417339816       783.9023215539     32495.3722978693         6.3382178820         7.1416708607
 10   9        19.9700878441       777.1126837138     32370.1485784805         6.3457518534         7.1447183522
 10  10        19.9709440564       777.1183409492     32368.8575688169         6.3456203572         7.1446651620
 11   1        19.9445214033       771.8783320635     31702.4999059293         6.3146524315         7.1321386360
 11   2        19.9446031459       771.8887440028     31702.6469351455         6.3146529975         7.1321388650
 11   3        19.9445214033       771.8783320635     31702.4999059294         6.3146524315         7.1321386360
 11   4        19.9446031459       771.8887440028     31702.6469351455         6.3146529975         7.1321388650
 11   5        20.1411992744       783.9094824173     32497.3631294419         6.3383572985         7.1417272547
 11   6        20.1408663978       783.8964524211     32496.6746159362         6.3383498403         7.1417242379
 11   7        20.1411992744       783.9094824173     32497.3631294426         6.3383572985         7.1417272547
 11   8        20.1408663978       783.8964524211     32496.6746159364         6.3383498403         7.1417242379
 11   9        19.9692317798       777.1070298675     32371.4396699325         6.3458833449         7.1447715405
 11  10        19.9700878441       777.1126837138     32370.1485784805         6.3457518534         7.1447183522
 11  11        19.9692317798       777.1070298675     32371.4396699325         6.3458833449         7.1447715405
 12   1        19.9453963766       771.8845687559     31701.2262228905         6.3145195571         7.1320848883
 12   2        19.9454780768       771.8949792645     31701.3731560298         6.3145201223         7.1320851169
 12   3        19.9453963766       771.8845687559     31701.2262228906         6.3145195571         7.1320848883
 12   4        19.9454780768       771.8949792645     31701.3731560298         6.3145201223         7.1320851169
 12   5        20.1420668928       783.9153524417     32496.0608289862         6.3382253406         7.1416738778
 12   6        20.1417339816       783.9023215539     32495.3722978696         6.3382178820         7.1416708607
 12   7        20.1420668928       783.9153524417     32496.0608289869         6.3382253406         7.1416738778
 12   8        20.1417339816       783.9023215539     32495.3722978698         6.3382178820         7.1416708607
 12   9        19.9700878441       777.1126837138     32370.1485784810         6.3457518534         7.1447183522
 12  10        19.9709440564       777.1183409492     32368.8575688174         6.3456203572         7.1446651620
 12  11        19.9700878441       777.1126837138     32370.1485784810         6.3457518534         7.1447183522
 12  12        19.9709440564       777.1183409492     32368.8575688178         6.3456203572         7.1446651620
 13   1        20.1233530709       783.2736142089     32462.8554207729         6.3380730346         7.1416122700
 13   2        20.1234351783       783.2841235147     32463.0081610562         6.3380737256         7.1416125495
 13   3        20.1233530709       783.2736142089     32462.8554207730         6.3380730346         7.1416122700
 13   4        20.1234351783       783.2841235147     32463.0081610562         6.3380737256         7.1416125495
 13   5        20.3216660981       795.4517393128     33271.1812178147         6.3616096109         7.1511328151
 13   6        20.3213300756       795.4385115000     33270.4782601353         6.3616022287         7.1511298290
 13   7        20.3216660981       795.4517393128     33271.1812178154         6.3616096109         7.1511328151
 13   8        20.3213300756       795.4385115001     33270.4782601355         6.3616022287         7.1511298290
 13   9        20.1481244651       788.5484549126     33139.9080964308         6.3690558418         7.1541448155
 13  10        20.1489890925       788.5543864429     33138.6158381236         6.3689252147         7.1540919768
 13  11        20.1481244651       788.5484549126     33139.9080964309         6.3690558418         7.1541448155
 13  12        20.1489890925       788.5543864429     33138.6158381241         6.3689252147         7.1540919768
 13  13        20.3286269250       800.1327912900     33921.4350472139         6.3920690655         7.1634536645
 14   1        20.1231574831       783.2850674136     32464.6439441609         6.3381759993         7.1416539192
 14   2        20.1232396263       783.2955781206     32464.7967635684         6.3381766908         7.1416541989
 14   3        20.1231574831       783.2850674136     32464.6439441611         6.3381759993         7.1416539192
 14   4        20.1232396263       783.2955781206     32464.7967635684         6.3381766908         7.1416541989
 14   5        20.3214813520       795.4637618854     33273.0114135603         6.3617118292         7.1511741624
 14   6        20.3211453488       795.4505345104     33272.3084534717         6.3617044474         7.1511711764
 14   7        20.3214813520       795.4637618854     33273.0114135610         6.3617118292         7.1511741624
 14   8        20.3211453488       795.4505345104     33272.3084534719         6.3617044474         7.1511711764
 14   9        20.1479446092       788.5605054659     33141.7265268686         6.3691577142         7.1541860229
 14  10        20.1488091399       788.5664342813     33140.4341751661         6.3690270910         7.1541331858
 14  11        20.1479446092       788.5605054659     33141.7265268686         6.3691577142         7.1541860229
 14  12        20.1488091399       788.5664342813     33140.4341751666         6.3690270910         7.1541331858
 14  13        20.3284447435       800.1448813391     33923.2722443597         6.3921702307         7.1634945858
 14  14        20.3282626348       800.1569739045     33925.1095585107         6.3922713927         7.1635355058
 15   1        20.1233530709       783.2736142089     32462.8554207732         6.3380730346         7.1416122700
 15   2        20.1234351783       783.2841235147     32463.0081610565         6.3380737256         7.1416125495
 15   3        20.1233530709       783.2736142089     32462.8554207734         6.3380730346         7.1416122700
 15   4        20.1234351783       783.2841235147     32463.0081610566         6.3380737256         7.1416125495
 15   5        20.3216660981       795.4517393128     33271.1812178150         6.3616096109         7.1511328151
 15   6        20.3213300756       795.4385115000     33270.4782601357         6.3616022287         7.1511298290
 15   7        20.3216660981       795.4517393128     33271.1812178157         6.3616096109         7.1511328151
 15   8        20.3213300756       795.4385115001     33270.4782601358         6.3616022287         7.1511298290
 15   9        20.1481244651       788.5484549126     33139.9080964312         6.3690558418         7.1541448155
 15  10        20.1489890925       788.5543864429     33138.6158381240         6.3689252147         7.1540919768
 15  11        20.1481244651       788.5484549126     33139.9080964312         6.3690558418         7.1541448155
 15  12        20.1489890925       788.5543864429     33138.6158381245         6.3689252147         7.1540919768
 15  13        20.3286269250       800.1327912900     33921.4350472143         6.3920690655         7.1634536645
 15  14        20.3284447435       800.1448813391     33923.2722443600         6.3921702307         7.1634945858
 15  15        20.3286269250       800.1327912900     33921.4350472147         6.3920690655         7.1634536645
 16   1        20.1231574831       783.2850674135     32464.6439441606         6.3381759993         7.1416539192
 16   2        20.1232396263       783.2955781206     32464.7967635681         6.3381766908         7.1416541989
 16   3        20.1231574831       783.2850674136     32464.6439441607         6.3381759993         7.1416539192
 16   4        20.1232396263       783.2955781206     32464.7967635681         6.3381766908         7.1416541989
 16   5        20.3214813520       795.4637618854     33273.0114135599         6.3617118292         7.1511741624
 16   6        20.3211453488       795.4505345104     33272.3084534714         6.3617044474         7.1511711764
 16   7        20.3214813520       795.4637618854     33273.0114135606         6.3617118292         7.1511741624
 16   8        20.3211453488       795.4505345104     33272.3084534716         6.3617044474         7.1511711764
 16   9        20.1479446092       788.5605054659     33141.7265268682         6.3691577142         7.1541860229
 16  10        20.1488091399       788.5664342812     33140.4341751658         6.3690270910         7.1541331858
 16  11        20.1479446092       788.5605054659     33141.7265268683         6.3691577142         7.1541860229
 16  12        20.1488091399       788.5664342813     33140.4341751662         6.3690270910         7.1541331858
 16  13        20.3284447435       800.1448813391     33923.2722443593         6.3921702307         7.1634945858
 16  14        20.3282626348       800.1569739045     33925.1095585104         6.3922713927         7.1635355058
 16  15        20.3284447435       800.1448813391     33923.2722443597         6.3921702307         7.1634945858
 16  16        20.3282626348       800.1569739045     33925.1095585100         6.3922713927         7.1635355058
 17   1        20.1993574198       785.5788818078     32520.2853982894         6.3348955688         7.1403269851
 17   2        20.1994418548       785.5895066083     32520.4412546794         6.3348962410         7.1403272570
 17   3        20.1993574198       785.5788818078     32520.2853982895         6.3348955688         7.1403269851
 17   4        20.1994418548       785.5895066083     32520.4412546794         6.3348962410         7.1403272570
 17   5        20.3991228783       797.8240777599     33331.9010791379         6.3584541212         7.1498564195
 17   6        20.3987864700       797.8108454335     33331.1980017173         6.3584467286         7.1498534292
 17   7        20.3991228783       797.8240777600     33331.9010791386         6.3584541212         7.1498564195
 17   8        20.3987864700       797.8108454335     33331.1980017174         6.3584467286         7.1498534292
 17   9        20.2251022700       790.9072497804     33200.9982819687         6.3659112878         7.1528728434
 17  10        20.2259653005       790.9129842922     33199.6919219495         6.3657805490         7.1528199595
 17  11        20.2251022700       790.9072497804     33200.9982819687         6.3659112878         7.1528728434
 17  12        20.2259653005       790.9129842922     33199.6919219500         6.3657805490         7.1528199595
 17  13        20.4062550071       802.5284392922     33984.5847462675         6.3889452675         7.1621900882
 17  14        20.4060760448       802.5407353867     33986.4349072527         6.3890465251         7.1622310469
 17  15        20.4062550071       802.5284392922     33984.5847462679         6.3889452675         7.1621900882
 17  16        20.4060760448       802.5407353867     33986.4349072524         6.3890465251         7.1622310469
 17  17        20.4843951939       804.9391907423     34048.1205396952         6.3858187787         7.1609254235
 18   1        20.1996455233       785.6206069949     32523.5953848064         6.3350343303         7.1403831141
 18   2        20.1997299759       785.6312327144     32523.7513025119         6.3350350034         7.1403833864
 18   3        20.1996455233       785.6206069949     32523.5953848065         6.3350343303         7.1403831141
 18   4        20.1997299759       785.6312327144     32523.7513025120         6.3350350034         7.1403833864
 18   5        20.3994195674       797.8665037981     33335.2727877070         6.3585919567         7.1499121740
 18   6        20.3990831614       797.8532710563     33334.5696641646         6.3585845646         7.1499091839
 18   7        20.3994195674       797.8665037981     33335.2727877077         6.3585919567         7.1499121740
 18   8        20.3990831614       797.8532710563     33334.5696641648         6.3585845646         7.1499091839
 18   9        20.2253979162       790.9493704772     33204.3455896775         6.3660486373         7.1529284013
 18  10        20.2262609194       790.9551048141     33203.0391880731         6.3659179031         7.1528755193
 18  11        20.2253979162       790.9493704772     33204.3455896775         6.3660486373         7.1529284013
 18  12        20.2262609194       790.9551048141     33203.0391880735         6.3659179031         7.1528755193
 18  13        20.4065529805       802.5709909597     33987.9814050262         6.3890817447         7.1622452932
 18  14        20.4063740475       802.5832882190     33989.8316752990         6.3891829984         7.1622862503
 18  15        20.4065529805       802.5709909597     33987.9814050266         6.3890817447         7.1622452932
 18  16        20.4063740475       802.5832882190     33989.8316752987         6.3891829984         7.1622862503
 18  17        20.4846960671       804.9819647936     34051.5302881508         6.3859553683         7.1609806740
 18  18        20.4849969590       805.0247404915     34054.9402405663         6.3860919532         7.1610359226
 19   1        20.1993574198       785.5788818078     32520.2853982899         6.3348955688         7.1403269851
 19   2        20.1994418548       785.5895066083     32520.4412546799         6.3348962410         7.1403272570
 19   3        20.1993574198       785.5788818078     32520.2853982900         6.3348955688         7.1403269851
 19   4        20.1994418548       785.5895066083     32520.4412546799         6.3348962410         7.1403272570
 19   5        20.3991228783       797.8240777599     33331.9010791384         6.3584541212         7.1498564195
 19   6        20.3987864700       797.8108454335     33331.1980017178         6.3584467286         7.1498534292
 19   7        20.3991228783       797.8240777600     33331.9010791391         6.3584541212         7.1498564195
 19   8        20.3987864700       797.8108454335     33331.1980017180         6.3584467286         7.1498534292
 19   9        20.2251022700       790.9072497804     33200.9982819692         6.3659112878         7.1528728434
 19  10        20.2259653005       790.9129842922     33199.6919219501         6.3657805490         7.1528199595
 19  11        20.2251022700       790.9072497804     33200.9982819692         6.3659112878         7.1528728434
 19  12        20.2259653005       790.9129842922     33199.6919219505         6.3657805490         7.1528199595
 19  13        20.4062550071       802.5284392922     33984.5847462680         6.3889452675         7.1621900882
 19  14        20.4060760448       802.5407353868     33986.4349072533         6.3890465251         7.1622310469
 19  15        20.4062550071       802.5284392922     33984.5847462684         6.3889452675         7.1621900882
 19  16        20.4060760448       802.5407353868     33986.4349072530         6.3890465251         7.1622310469
 19  17        20.4843951939       804.9391907423     34048.1205396957         6.3858187787         7.1609254235
 19  18        20.4846960671       804.9819647936     34051.5302881513         6.3859553683         7.1609806740
 19  19        20.4843951939       804.9391907423     34048.1205396963         6.3858187787         7.1609254235
 20   1        20.1996455233       785.6206069949     32523.5953848063         6.3350343303         7.1403831141
 20   2        20.1997299759       785.6312327144     32523.7513025119         6.3350350034         7.1403833864
 20   3        20.1996455233       785.6206069949     32523.5953848065         6.3350343303         7.1403831141
 20   4        20.1997299759       785.6312327144     32523.7513025119         6.3350350034         7.1403833864
 20   5        20.3994195674       797.8665037981     33335.2727877070         6.3585919567         7.1499121740
 20   6        20.3990831614       797.8532710563     33334.5696641645         6.3585845646         7.1499091839
 20   7        20.3994195674       797.8665037981     33335.2727877076         6.3585919567         7.1499121740
 20   8        20.3990831614       797.8532710563     33334.5696641647         6.3585845646         7.1499091839
 20   9        20.2253979162       790.9493704772     33204.3455896774         6.3660486373         7.1529284013
 20  10        20.2262609194       790.9551048141     33203.0391880730         6.3659179031         7.1528755193
 20  11        20.2253979162       790.9493704772     33204.3455896775         6.3660486373         7.1529284013
 20  12        20.2262609194       790.9551048141     33203.0391880735         6.3659179031         7.1528755193
 20  13        20.4065529805       802.5709909597     33987.9814050262         6.3890817447         7.1622452932
 20  14        20.4063740475       802.5832882190     33989.8316752990         6.3891829984         7.1622862503
 20  15        20.4065529805       802.5709909597     33987.9814050265         6.3890817447         7.1622452932
 20  16        20.4063740475       802.5832882190     33989.8316752986         6.3891829984         7.1622862503
 20  17        20.4846960671       804.9819647936     34051.5302881507         6.3859553683         7.1609806740
 20  18        20.4849969590       805.0247404915     34054.9402405662         6.3860919532         7.1610359226
 20  19        20.4846960671       804.9819647936     34051.5302881513         6.3859553683         7.1609806740
 20  20        20.4849969590       805.0247404915     34054.9402405662         6.3860919532         7.1610359226
 21   1        19.5721595069       767.2057183203     32407.1390602169         6.3797111538         7.1584548892
 21   2        19.5722809888       767.2175933570     32407.3635911865         6.3797119507         7.1584552115
 21   3        19.5721595069       767.2057183203     32407.1390602170         6.3797111538         7.1584548892
 21   4        19.5722809888       767.2175933570     32407.3635911864         6.3797119507         7.1584552115
 21   5        19.7795626186       779.6757921553     33228.1618350362         6.4029117805         7.1678395427
 21   6        19.7792540473       779.6635559364     33227.4946848833         6.4029045241         7.1678366075
 21   7        19.7795626186       779.6757921553     33228.1618350368         6.4029117805         7.1678395427
 21   8        19.7792540473       779.6635559365     33227.4946848834         6.4029045241         7.1678366075
 21   9        19.6144211247       773.0587880541     33099.4864814304         6.4102284900         7.1707991517
 21  10        19.6151615765       773.0608028286     33098.0795485409         6.4100996547         7.1707470378
 21  11        19.6144211247       773.0587880541     33099.4864814304         6.4102284900         7.1707991517
 21  12        19.6151615765       773.0608028286     33098.0795485413         6.4100996547         7.1707470378
[...]
  Fvdw (86) =   3.186258068362E-04  -7.302346395200E-06  -6.344242665928E-05  Hartree/bohr
            =   6.372516136724E-04  -1.460469279040E-05  -1.268848533186E-04  Ry/bohr
  Fvdw (87) =   3.186105273220E-04   7.311025754895E-06  -6.343072025942E-05  Hartree/bohr
            =   6.372210546440E-04   1.462205150979E-05  -1.268614405188E-04  Ry/bohr
  Fvdw (88) =  -3.186258068362E-04   7.302346395199E-06   6.344242665926E-05  Hartree/bohr
            =  -6.372516136723E-04   1.460469279040E-05   1.268848533185E-04  Ry/bohr
  Fvdw (89) =  -3.196307724657E-04   2.091966085260E-04  -1.650863534452E-04  Hartree/bohr
            =  -6.392615449314E-04   4.183932170521E-04  -3.301727068904E-04  Ry/bohr
  Fvdw (90) =   3.195633175013E-04   2.095347717611E-04   1.650886190325E-04  Hartree/bohr
            =   6.391266350026E-04   4.190695435222E-04   3.301772380649E-04  Ry/bohr
  Fvdw (91) =   3.196307724657E-04  -2.091966085260E-04   1.650863534453E-04  Hartree/bohr
            =   6.392615449314E-04  -4.183932170521E-04   3.301727068905E-04  Ry/bohr
  Fvdw (92) =  -3.195633175013E-04  -2.095347717611E-04  -1.650886190325E-04  Hartree/bohr
            =  -6.391266350026E-04  -4.190695435222E-04  -3.301772380649E-04  Ry/bohr
  sigma_vdw (Hy/bohr**3) =  -8.293251266496E-06   2.311166905166E-10   4.065597188177E-07  
                             2.311166905166E-10  -1.308193758825E-05  -4.160995152414E-10  
                             4.065597188177E-07  -4.160995152414E-10  -1.675459025896E-05  
  sigma_vdw (Ry/bohr**3) =  -1.658650253299E-05   4.622333810332E-10   8.131194376355E-07  
                             4.622333810332E-10  -2.616387517649E-05  -8.321990304827E-10  
                             8.131194376355E-07  -8.321990304827E-10  -3.350918051793E-05  
  sigma_vdw (GPa) =  -2.439958351095E-01   6.799686648608E-06   1.196139787969E-02  
                      6.799686648608E-06  -3.848838271174E-01  -1.224206833334E-05  
                      1.196139787969E-02  -1.224206833334E-05  -4.929369810209E-01  
 
 TIME (final):      868.9

!    total energy              =   -2512.30862264 Ry
     Harris-Foulkes estimate   =   -2512.30862264 Ry
     estimated scf accuracy    <          6.1E-10 Ry

     total all-electron energy =    -40488.113161 Ry

     The total energy is the sum of the following terms:

     one-electron contribution =   -2731.74115606 Ry
     hartree contribution      =    1441.98075065 Ry
     xc contribution           =    -325.22729802 Ry
     ewald contribution        =     741.02050264 Ry
     Dispersion XDM Correction =      -0.44866440 Ry
     Uncorrected (XDM) energy  =   -2511.85995824 Ry
     one-center paw contrib.   =   -1637.89275745 Ry

     convergence has been achieved in  86 iterations

     Forces acting on atoms (Ry/au):


     negative rho (up, down):  0.163E-03 0.000E+00
     atom    1 type  1   force =    -0.00072304   -0.00014254   -0.00029206
     atom    2 type  1   force =     0.00053161   -0.00022723    0.00029396
     atom    3 type  1   force =     0.00072304    0.00014254    0.00029206
     atom    4 type  1   force =    -0.00053161    0.00022723   -0.00029396
     atom    5 type  1   force =    -0.00050992    0.00026309    0.00045973
     atom    6 type  1   force =     0.00072128    0.00027189   -0.00046308
     atom    7 type  1   force =     0.00050992   -0.00026309   -0.00045973
     atom    8 type  1   force =    -0.00072128   -0.00027189    0.00046308
     atom    9 type  1   force =     0.00026985   -0.00041485    0.00008826
     atom   10 type  1   force =    -0.00000814   -0.00039078   -0.00002526
     atom   11 type  1   force =    -0.00026985    0.00041485   -0.00008826
     atom   12 type  1   force =     0.00000814    0.00039078    0.00002526
     atom   13 type  1   force =    -0.00015054    0.00008033    0.00046473
     atom   14 type  1   force =     0.00012143    0.00004238   -0.00047377
     atom   15 type  1   force =     0.00015054   -0.00008033   -0.00046473
     atom   16 type  1   force =    -0.00012143   -0.00004238    0.00047377
     atom   17 type  1   force =    -0.00007835   -0.00004170    0.00046264
     atom   18 type  1   force =     0.00009656   -0.00007806   -0.00046348
     atom   19 type  1   force =     0.00007835    0.00004170   -0.00046264
     atom   20 type  1   force =    -0.00009656    0.00007806    0.00046348
     atom   21 type  1   force =    -0.00033497    0.00019366    0.00063524
     atom   22 type  1   force =     0.00015746    0.00021983   -0.00067352
     atom   23 type  1   force =     0.00033497   -0.00019366   -0.00063524
     atom   24 type  1   force =    -0.00015746   -0.00021983    0.00067352
     atom   25 type  1   force =    -0.00004933    0.00025046    0.00025452
     atom   26 type  1   force =     0.00003380    0.00026383   -0.00023847
     atom   27 type  1   force =     0.00004933   -0.00025046   -0.00025452
     atom   28 type  1   force =    -0.00003380   -0.00026383    0.00023847
     atom   29 type  1   force =    -0.00014547   -0.00055065    0.00033063
     atom   30 type  1   force =    -0.00008236   -0.00061366   -0.00037196
     atom   31 type  1   force =     0.00014547    0.00055065   -0.00033063
     atom   32 type  1   force =     0.00008236    0.00061366    0.00037196
     atom   33 type  1   force =    -0.00016849   -0.00006409    0.00003536
     atom   34 type  1   force =     0.00019880   -0.00004283   -0.00008768
     atom   35 type  1   force =     0.00016849    0.00006409   -0.00003536
     atom   36 type  1   force =    -0.00019880    0.00004283    0.00008768
     atom   37 type  1   force =     0.00011170   -0.00074673    0.00014353
     atom   38 type  1   force =    -0.00006695   -0.00068904   -0.00014138
     atom   39 type  1   force =    -0.00011170    0.00074673   -0.00014353
     atom   40 type  1   force =     0.00006695    0.00068904    0.00014138
     atom   41 type  1   force =     0.00010536    0.00023435   -0.00014746
     atom   42 type  1   force =    -0.00007742    0.00028009    0.00017316
     atom   43 type  1   force =    -0.00010536   -0.00023435    0.00014746
     atom   44 type  1   force =     0.00007742   -0.00028009   -0.00017316
     atom   45 type  1   force =     0.00015069   -0.00032234    0.00008690
     atom   46 type  1   force =    -0.00013543   -0.00036477   -0.00007005
     atom   47 type  1   force =    -0.00015069    0.00032234   -0.00008690
     atom   48 type  1   force =     0.00013543    0.00036477    0.00007005
     atom   49 type  4   force =     0.00005406    0.00009200    0.00080204
     atom   50 type  4   force =    -0.00007112    0.00009090   -0.00078989
     atom   51 type  4   force =    -0.00005406   -0.00009200   -0.00080204
     atom   52 type  4   force =     0.00007112   -0.00009090    0.00078989
     atom   53 type  4   force =    -0.00006974   -0.00068053    0.00045632
     atom   54 type  4   force =     0.00005591   -0.00073318   -0.00041938
     atom   55 type  4   force =     0.00006974    0.00068053   -0.00045632
     atom   56 type  4   force =    -0.00005591    0.00073318    0.00041938
     atom   57 type  2   force =    -0.00062481    0.00040541   -0.00038352
     atom   58 type  2   force =     0.00070640    0.00042726    0.00035742
     atom   59 type  2   force =     0.00062481   -0.00040541    0.00038352
     atom   60 type  2   force =    -0.00070640   -0.00042726   -0.00035742
     atom   61 type  2   force =    -0.00031400   -0.00028722   -0.00038107
     atom   62 type  2   force =     0.00028467   -0.00030376    0.00036231
     atom   63 type  2   force =     0.00031400    0.00028722    0.00038107
     atom   64 type  2   force =    -0.00028467    0.00030376   -0.00036231
     atom   65 type  2   force =     0.00072100    0.00017785   -0.00027564
     atom   66 type  2   force =    -0.00072630    0.00021309    0.00024330
     atom   67 type  2   force =    -0.00072100   -0.00017785    0.00027564
     atom   68 type  2   force =     0.00072630   -0.00021309   -0.00024330
     atom   69 type  2   force =     0.00055428   -0.00008407    0.00041718
     atom   70 type  2   force =    -0.00056575   -0.00008002   -0.00043148
     atom   71 type  2   force =    -0.00055428    0.00008407   -0.00041718
     atom   72 type  2   force =     0.00056575    0.00008002    0.00043148
     atom   73 type  2   force =     0.00056526    0.00036061    0.00085253
     atom   74 type  2   force =    -0.00061874    0.00035640   -0.00089271
     atom   75 type  2   force =    -0.00056526   -0.00036061   -0.00085253
     atom   76 type  2   force =     0.00061874   -0.00035640    0.00089271
     atom   77 type  2   force =     0.00052142    0.00003045    0.00012045
     atom   78 type  2   force =    -0.00047481    0.00002345   -0.00010167
     atom   79 type  2   force =    -0.00052142   -0.00003045   -0.00012045
     atom   80 type  2   force =     0.00047481   -0.00002345    0.00010167
     atom   81 type  2   force =     0.00061459   -0.00003902    0.00032714
     atom   82 type  2   force =    -0.00057427   -0.00000328   -0.00027651
     atom   83 type  2   force =    -0.00061459    0.00003902   -0.00032714
     atom   84 type  2   force =     0.00057427    0.00000328    0.00027651
     atom   85 type  2   force =    -0.00057346    0.00054806   -0.00006261
     atom   86 type  2   force =     0.00060220    0.00054658    0.00006711
     atom   87 type  2   force =     0.00057346   -0.00054806    0.00006261
     atom   88 type  2   force =    -0.00060220   -0.00054658   -0.00006711
     atom   89 type  3   force =     0.00005133    0.00063672    0.00048689
     atom   90 type  3   force =    -0.00008159    0.00063489   -0.00046123
     atom   91 type  3   force =    -0.00005133   -0.00063672   -0.00048689
     atom   92 type  3   force =     0.00008159   -0.00063489    0.00046123

     Total force =     0.006520     Total SCF correction =     0.000052

     Total XDM Dispersion Force =     0.009978

     XDM Dispersion forces acting on atoms:
     atom    1 type  1   force =     0.00128565    0.00010983    0.00003477
     atom    2 type  1   force =    -0.00128531    0.00011065   -0.00003512
     atom    3 type  1   force =    -0.00128565   -0.00010983   -0.00003477
     atom    4 type  1   force =     0.00128531   -0.00011065    0.00003512
     atom    5 type  1   force =     0.00147908   -0.00024230   -0.00026567
     atom    6 type  1   force =    -0.00147885   -0.00024149    0.00026561
     atom    7 type  1   force =    -0.00147908    0.00024230    0.00026567
     atom    8 type  1   force =     0.00147885    0.00024149   -0.00026561
     atom    9 type  1   force =     0.00126078    0.00030252    0.00035514
     atom   10 type  1   force =    -0.00125996    0.00030398   -0.00035508
     atom   11 type  1   force =    -0.00126078   -0.00030252   -0.00035514
     atom   12 type  1   force =     0.00125996   -0.00030398    0.00035508
     atom   13 type  1   force =    -0.00009556    0.00001445    0.00006136
     atom   14 type  1   force =     0.00009509    0.00001680   -0.00006151
     atom   15 type  1   force =     0.00009556   -0.00001445   -0.00006136
     atom   16 type  1   force =    -0.00009509   -0.00001680    0.00006151
     atom   17 type  1   force =     0.00040727   -0.00068151   -0.00025141
     atom   18 type  1   force =    -0.00040787   -0.00067957    0.00025166
     atom   19 type  1   force =    -0.00040727    0.00068151    0.00025141
     atom   20 type  1   force =     0.00040787    0.00067957   -0.00025166
     atom   21 type  1   force =     0.00070667   -0.00011254   -0.00005992
     atom   22 type  1   force =    -0.00070644   -0.00011146    0.00005995
     atom   23 type  1   force =    -0.00070667    0.00011254    0.00005992
     atom   24 type  1   force =     0.00070644    0.00011146   -0.00005995
     atom   25 type  1   force =    -0.00089867   -0.00035672    0.00040634
     atom   26 type  1   force =     0.00089860   -0.00035451   -0.00040638
     atom   27 type  1   force =     0.00089867    0.00035672   -0.00040634
     atom   28 type  1   force =    -0.00089860    0.00035451    0.00040638
     atom   29 type  1   force =     0.00054394    0.00048190    0.00023506
     atom   30 type  1   force =    -0.00054384    0.00048320   -0.00023464
     atom   31 type  1   force =    -0.00054394   -0.00048190   -0.00023506
     atom   32 type  1   force =     0.00054384   -0.00048320    0.00023464
     atom   33 type  1   force =    -0.00001650   -0.00049524   -0.00008464
     atom   34 type  1   force =     0.00001648   -0.00049442    0.00008483
     atom   35 type  1   force =     0.00001650    0.00049524    0.00008464
     atom   36 type  1   force =    -0.00001648    0.00049442   -0.00008483
     atom   37 type  1   force =     0.00007291    0.00032921    0.00011773
     atom   38 type  1   force =    -0.00007274    0.00033050   -0.00011769
     atom   39 type  1   force =    -0.00007291   -0.00032921   -0.00011773
     atom   40 type  1   force =     0.00007274   -0.00033050    0.00011769
     atom   41 type  1   force =    -0.00131929   -0.00044286    0.00024125
     atom   42 type  1   force =     0.00131934   -0.00044231   -0.00024129
     atom   43 type  1   force =     0.00131929    0.00044286   -0.00024125
     atom   44 type  1   force =    -0.00131934    0.00044231    0.00024129
     atom   45 type  1   force =    -0.00082937   -0.00010670    0.00010400
     atom   46 type  1   force =     0.00082948   -0.00010640   -0.00010405
     atom   47 type  1   force =     0.00082937    0.00010670   -0.00010400
     atom   48 type  1   force =    -0.00082948    0.00010640    0.00010405
     atom   49 type  4   force =     0.00075391   -0.00066142   -0.00147294
     atom   50 type  4   force =    -0.00075371   -0.00065962    0.00147313
     atom   51 type  4   force =    -0.00075391    0.00066142    0.00147294
     atom   52 type  4   force =     0.00075371    0.00065962   -0.00147313
     atom   53 type  4   force =    -0.00241575    0.00126297    0.00036669
     atom   54 type  4   force =     0.00241508    0.00126489   -0.00036709
     atom   55 type  4   force =     0.00241575   -0.00126297   -0.00036669
     atom   56 type  4   force =    -0.00241508   -0.00126489    0.00036709
     atom   57 type  2   force =     0.00038962    0.00001519    0.00001372
     atom   58 type  2   force =    -0.00038956    0.00001528   -0.00001376
     atom   59 type  2   force =    -0.00038962   -0.00001519   -0.00001372
     atom   60 type  2   force =     0.00038956   -0.00001528    0.00001376
     atom   61 type  2   force =     0.00047962   -0.00023965   -0.00009958
     atom   62 type  2   force =    -0.00047959   -0.00023952    0.00009961
     atom   63 type  2   force =    -0.00047962    0.00023965    0.00009958
     atom   64 type  2   force =     0.00047959    0.00023952   -0.00009961
     atom   65 type  2   force =     0.00009118    0.00019299    0.00008321
     atom   66 type  2   force =    -0.00009157    0.00019341   -0.00008341
     atom   67 type  2   force =    -0.00009118   -0.00019299   -0.00008321
     atom   68 type  2   force =     0.00009157   -0.00019341    0.00008341
     atom   69 type  2   force =     0.00047020    0.00016744    0.00012989
     atom   70 type  2   force =    -0.00046983    0.00016780   -0.00012988
     atom   71 type  2   force =    -0.00047020   -0.00016744   -0.00012989
     atom   72 type  2   force =     0.00046983   -0.00016780    0.00012988
     atom   73 type  2   force =     0.00038231   -0.00014606   -0.00007584
     atom   74 type  2   force =    -0.00038260   -0.00014536    0.00007581
     atom   75 type  2   force =    -0.00038231    0.00014606    0.00007584
     atom   76 type  2   force =     0.00038260    0.00014536   -0.00007581
     atom   77 type  2   force =    -0.00044337   -0.00004059    0.00016662
     atom   78 type  2   force =     0.00044349   -0.00003988   -0.00016661
     atom   79 type  2   force =     0.00044337    0.00004059   -0.00016662
     atom   80 type  2   force =    -0.00044349    0.00003988    0.00016661
     atom   81 type  2   force =    -0.00007164    0.00024873    0.00014331
     atom   82 type  2   force =     0.00007150    0.00024900   -0.00014318
     atom   83 type  2   force =     0.00007164   -0.00024873   -0.00014331
     atom   84 type  2   force =    -0.00007150   -0.00024900    0.00014318
     atom   85 type  2   force =    -0.00063722   -0.00001462    0.00012686
     atom   86 type  2   force =     0.00063725   -0.00001460   -0.00012688
     atom   87 type  2   force =     0.00063722    0.00001462   -0.00012686
     atom   88 type  2   force =    -0.00063725    0.00001460    0.00012688
     atom   89 type  3   force =    -0.00063926    0.00041839   -0.00033017
     atom   90 type  3   force =     0.00063913    0.00041907    0.00033018
     atom   91 type  3   force =     0.00063926   -0.00041839    0.00033017
     atom   92 type  3   force =    -0.00063913   -0.00041907   -0.00033018


     entering subroutine stress ...


     negative rho (up, down):  0.163E-03 0.000E+00
          total   stress  (Ry/bohr**3)                   (kbar)     P=   -0.03
  -0.00000192  -0.00000003  -0.00000003         -0.28      0.00      0.00
  -0.00000003   0.00000170  -0.00000005          0.00      0.25     -0.01
  -0.00000003  -0.00000005  -0.00000045          0.00     -0.01     -0.07


     Writing output data file fepxas.save
 
     init_run     :    108.24s CPU    109.67s WALL (       2 calls)
     electrons    :  24361.14s CPU  24717.14s WALL (       8 calls)
     update_pot   :    249.32s CPU    251.55s WALL (       6 calls)
     forces       :    441.12s CPU    444.89s WALL (       8 calls)
     stress       :   1077.31s CPU   1086.78s WALL (       8 calls)

     Called by init_run:
     wfcinit      :     27.60s CPU     27.98s WALL (       2 calls)
     potinit      :     28.66s CPU     28.96s WALL (       2 calls)

     Called by electrons:
     c_bands      :   9808.13s CPU   9966.89s WALL (     434 calls)
     sum_band     :   8056.54s CPU   8132.67s WALL (     434 calls)
     v_of_rho     :    623.93s CPU    626.10s WALL (     441 calls)
     newd         :   4419.74s CPU   4431.74s WALL (     441 calls)
     mix_rho      :    319.64s CPU    331.40s WALL (     434 calls)

     Called by c_bands:
     init_us_2    :     64.21s CPU     64.31s WALL (     870 calls)
     cegterg      :   9661.46s CPU   9820.19s WALL (     434 calls)

     Called by *egterg:
     h_psi        :   6938.79s CPU   6990.82s WALL (    1985 calls)
     s_psi        :    814.78s CPU    815.01s WALL (    1985 calls)
     g_psi        :     30.50s CPU     30.50s WALL (    1549 calls)
     cdiaghg      :    233.00s CPU    233.36s WALL (    1976 calls)

     Called by h_psi:
     add_vuspsi   :    817.97s CPU    818.25s WALL (    1985 calls)

     General routines
     calbec       :   1126.00s CPU   1143.08s WALL (    2435 calls)
     fft          :    555.79s CPU    598.19s WALL (   12936 calls)
     ffts         :     35.40s CPU     35.73s WALL (    1750 calls)
     fftw         :   7704.90s CPU   7777.71s WALL (  590972 calls)
     interpolate  :    124.46s CPU    125.08s WALL (    1750 calls)
     davcio       :      0.00s CPU     45.83s WALL (     433 calls)
 
     Parallel routines
     fft_scatter  :   1728.88s CPU   1841.84s WALL (  605658 calls)
 
     PAW routines
     PAW_pot      :    200.47s CPU    223.61s WALL (     441 calls)
     PAW_ddot     :    142.06s CPU    151.95s WALL (   17214 calls)
     PAW_symme    :      0.11s CPU      0.18s WALL (     869 calls)
 
     PWSCF        :     7h18m CPU        7h24m WALL

 
   This run was terminated on:   5:15:59  20Oct2012            

=------------------------------------------------------------------------------=
   JOB DONE.
=------------------------------------------------------------------------------=
