
     Program PWSCF v.4.3.2      starts on 25Oct2012 at 12:29:55 

     This program is part of the open-source Quantum ESPRESSO suite
     for quantum simulation of materials; please cite
         "P. Giannozzi et al., J. Phys.:Condens. Matter 21 395502 (2009);
          URL http://www.quantum-espresso.org", 
     in publications or presentations arising from this work. More details at
     http://www.quantum-espresso.org/wiki/index.php/Citing_Quantum-ESPRESSO

     Parallel version (MPI), running on    12 processors
     R & G space division:  proc/pool =   12

     Current dimensions of program PWSCF are:
     Max number of different atomic species (ntypx) = 10
     Max number of k-points (npk) =  40000
     Max angular momentum in pseudopotentials (lmaxx) =  3
     Waiting for input...
     Reading input from stdin
               file c.UPF: wavefunction(s)  2P renormalized
               file f.UPF: wavefunction(s)  2S 2P renormalized
               file o.UPF: wavefunction(s)  2P renormalized
               file sb.UPF: wavefunction(s)  5S 5P renormalized

     Subspace diagonalization in iterative solution of the eigenvalue problem:
     a serial algorithm will be used

 
     Parallelization info
     --------------------
     sticks:   dense  smooth     PW     G-vecs:    dense   smooth      PW
     Min        2445    1629    431                86159    46879    6383
     Max        2446    1630    432                86160    46901    6384
     Sum       29347   19555   5179              1033913   562685   76603
 

     Title: 
     fepxas                                                                     


     bravais-lattice index     =            0
     lattice parameter (alat)  =       1.0000  a.u.
     unit-cell volume          =    8961.8946 (a.u.)^3
     number of atoms/cell      =           92
     number of atomic types    =            4
     number of electrons       =       480.00
     number of Kohn-Sham states=          240
     kinetic-energy cutoff     =      60.0000  Ry
     charge density cutoff     =     360.0000  Ry
     convergence threshold     =      1.0E-07
     mixing beta               =       0.7000
     number of iterations used =            8  plain     mixing
     Exchange-correlation      =  NOX  PW   PW86 PBC ( 0 417 4 0)
     EXX-fraction              =        0.00
     nstep                     =           50


     celldm(1)=   1.000000  celldm(2)=   0.000000  celldm(3)=   0.000000
     celldm(4)=   0.000000  celldm(5)=   0.000000  celldm(6)=   0.000000

     crystal axes: (cart. coord. in units of alat)
               a(1) = (  27.898548  -0.067998  -0.567458 )  
               a(2) = (  -0.014556  36.715871  -0.012421 )  
               a(3) = (  -0.249373  -0.004581   8.754203 )  

     reciprocal axes: (cart. coord. in units 2 pi/alat)
               b(1) = (  0.035865  0.000015  0.001022 )  
               b(2) = (  0.000067  0.027236  0.000016 )  
               b(3) = (  0.002325  0.000040  0.114297 )  


     PseudoPot. # 1 for  C read from file:
     ./c.UPF
     MD5 check sum: 59d3a4af416b94ce846c69cefa103580
     Pseudo is Projector augmented-wave + core cor, Zval =  4.0
     Generated using "atomic" code by A. Dal Corso  (Quantum ESPRESSO distribution)
     Shape of augmentation charge: BESSEL
     Using radial grid of 1073 points,  4 beta functions with: 
                l(1) =   0
                l(2) =   0
                l(3) =   1
                l(4) =   1
     Q(r) pseudized with 0 coefficients 


     PseudoPot. # 2 for  F read from file:
     ./f.UPF
     MD5 check sum: 8cc698429acbef515959d6d1ea0e1135
     Pseudo is Projector augmented-wave + core cor, Zval =  7.0
     Generated using "atomic" code by A. Dal Corso  (Quantum ESPRESSO distribution)
     Shape of augmentation charge: PSQ
     Using radial grid of 1105 points,  4 beta functions with: 
                l(1) =   0
                l(2) =   0
                l(3) =   1
                l(4) =   1
     Q(r) pseudized with 0 coefficients 


     PseudoPot. # 3 for  O read from file:
     ./o.UPF
     MD5 check sum: 7b405463629fa2aaa019ec68516902cf
     Pseudo is Projector augmented-wave + core cor, Zval =  6.0
     Generated using "atomic" code by A. Dal Corso  (Quantum ESPRESSO distribution)
     Shape of augmentation charge: BESSEL
     Using radial grid of 1095 points,  4 beta functions with: 
                l(1) =   0
                l(2) =   0
                l(3) =   1
                l(4) =   1
     Q(r) pseudized with 0 coefficients 


     PseudoPot. # 4 for Sb read from file:
     ./sb.UPF
     MD5 check sum: eafba98ab4c7605221bb994336090a42
     Pseudo is Projector augmented-wave + core cor, Zval =  5.0
     Generated using "atomic" code by A. Dal Corso  (Quantum ESPRESSO distribution)
     Shape of augmentation charge: PSQ
     Using radial grid of 1243 points,  4 beta functions with: 
                l(1) =   0
                l(2) =   0
                l(3) =   1
                l(4) =   1
     Q(r) pseudized with 0 coefficients 


     atomic species   valence    mass     pseudopotential
        c              4.00    12.01070      C( 1.00)
        f              7.00    18.99840      F( 1.00)
        o              6.00    15.99940      O( 1.00)
        sb             5.00   121.76000     Sb( 1.00)

      2 Sym.Ops. (with inversion)


   Cartesian axes

     site n.     atom                  positions (alat units)
         1           c   tau(   1) = (  13.2076337  31.0012338   7.4392312  )
         2           c   tau(   2) = (  28.2249287  12.6443833   4.8090793  )
         3           c   tau(   3) = (  14.4269858   5.6420580   0.7350927  )
         4           c   tau(   4) = (  -0.5903091  23.9989086   3.3652445  )
         5           c   tau(   5) = (  14.3468576  32.6218012   5.6951678  )
         6           c   tau(   6) = (  27.0954641  14.2781837   6.5475570  )
         7           c   tau(   7) = (  13.2877619   4.0214906   2.4791560  )
         8           c   tau(   8) = (   0.5391555  22.3651081   1.6267668  )
         9           c   tau(   9) = (  14.7159128  29.3514567   8.8338286  )
        10           c   tau(  10) = (  26.7054720  11.0020754   3.4176427  )
        11           c   tau(  11) = (  12.9187067   7.2918351  -0.6595048  )
        12           c   tau(  12) = (   0.9291476  25.6412164   4.7566811  )
        13           c   tau(  13) = (  23.1703107   4.0562003   7.2082822  )
        14           c   tau(  14) = (  18.2581728  22.4482365   5.0712747  )
        15           c   tau(  15) = (   4.4643089  32.5870915   0.9660417  )
        16           c   tau(  16) = (   9.3764468  14.1950553   3.1030492  )
        17           c   tau(  17) = (  21.4921488   2.8828040   5.5473774  )
        18           c   tau(  18) = (  19.9495040  21.2820646   6.7238370  )
        19           c   tau(  19) = (   6.1424708  33.7604878   2.6269464  )
        20           c   tau(  20) = (   7.6851156  15.3612272   1.4504869  )
        21           c   tau(  21) = (  16.9397315  32.6913695   5.3999645  )
        22           c   tau(  22) = (  24.5030855  14.3646693   6.8476372  )
        23           c   tau(  23) = (  10.6948880   3.9519223   2.7743594  )
        24           c   tau(  24) = (   3.1315340  22.2786225   1.3266866  )
        25           c   tau(  25) = (  24.5997844   2.5760417   8.8423981  )
        26           c   tau(  26) = (  16.8315372  20.9671720   3.4361445  )
        27           c   tau(  27) = (   3.0348352  34.0672501  -0.6680743  )
        28           c   tau(  28) = (  10.8030823  15.6761198   4.7381794  )
        29           c   tau(  29) = (  17.3303000  29.3869689   8.5038942  )
        30           c   tau(  30) = (  24.0925591  11.0470875   3.7589133  )
        31           c   tau(  31) = (  10.3043196   7.2563229  -0.3295703  )
        32           c   tau(  32) = (   3.5420604  25.5962043   4.4154106  )
        33           c   tau(  33) = (  21.2796271   0.2843694   5.4459053  )
        34           c   tau(  34) = (  20.1724985  18.6839040   6.8200626  )
        35           c   tau(  35) = (   6.3549925  36.3589224   2.7284185  )
        36           c   tau(  36) = (   7.4621211  17.9593878   1.3542613  )
        37           c   tau(  37) = (  18.4487228  31.0843165   6.8578931  )
        38           c   tau(  38) = (  22.9849457  12.7571424   5.3987161  )
        39           c   tau(  39) = (   9.1858968   5.5589753   1.3164308  )
        40           c   tau(  40) = (   4.6496738  23.8861495   2.7756077  )
        41           c   tau(  41) = (  24.3982069  -0.0522507   8.7264785  )
        42           c   tau(  42) = (  17.0483145  18.3407044   3.5420829  )
        43           c   tau(  43) = (   3.2364126  36.6955425  -0.5521546  )
        44           c   tau(  44) = (  10.5863051  18.3025874   4.6322410  )
        45           c   tau(  45) = (  22.7490342  35.4991920   7.0306546  )
        46           c   tau(  46) = (  18.6898554  17.1818884   5.2222472  )
        47           c   tau(  47) = (   4.8855854   1.1440998   1.1436692  )
        48           c   tau(  48) = (   8.9447642  19.4614034   2.9520767  )
        49           sb  tau(  49) = (  18.9698076  35.0184244   2.5673635  )
        50           sb  tau(  50) = (  22.7222569  16.7002971   0.9275651  )
        51           sb  tau(  51) = (   8.6648120   1.6248674   5.6069604  )
        52           sb  tau(  52) = (   4.9123627  19.9429947   7.2467587  )
        53           sb  tau(  53) = (  22.6034234  31.3393709   6.5055586  )
        54           sb  tau(  54) = (  18.8313383  13.0238569   5.7465948  )
        55           sb  tau(  55) = (   5.0311961   5.3039209   1.6687652  )
        56           sb  tau(  56) = (   8.8032812  23.6194349   2.4277290  )
        57           f   tau(  57) = (  10.6819713  30.9542412   7.7903847  )
        58           f   tau(  58) = (  30.7521655  12.5792291   4.4646615  )
        59           f   tau(  59) = (  16.9526483   5.6890506   0.3839392  )
        60           f   tau(  60) = (  -3.1175460  24.0640627   3.7096624  )
        61           f   tau(  61) = (  12.8039730  34.1315178   4.2443238  )
        62           f   tau(  62) = (  28.6544112  15.7814029   7.9889303  )
        63           f   tau(  63) = (  14.8306466   2.5117740   3.9300001  )
        64           f   tau(  64) = (  -1.0197917  20.8618889   0.1853935  )
        65           f   tau(  65) = (  23.4711162   6.5832416   7.1833452  )
        66           f   tau(  66) = (  17.9408935  24.9727681   5.1032953  )
        67           f   tau(  67) = (   4.1635034  30.0600502   0.9909787  )
        68           f   tau(  68) = (   9.6937260  11.6705237   3.0710286  )
        69           f   tau(  69) = (  13.8571982  27.7382966   1.7204332  )
        70           f   tau(  70) = (  27.7971666   9.3866144   1.7647763  )
        71           f   tau(  71) = (  13.7774214   8.9049952   6.4538906  )
        72           f   tau(  72) = (  -0.1625471  27.2566774   6.4095476  )
        73           f   tau(  73) = (  20.1350530   4.3990881   3.9720973  )
        74           f   tau(  74) = (  21.3077291  22.8035912   8.2938433  )
        75           f   tau(  75) = (   7.4995665  32.2442037   4.2022265  )
        76           f   tau(  76) = (   6.3268905  13.8397006  -0.1195195  )
        77           f   tau(  77) = (  26.4803490   3.6973137   1.7131288  )
        78           f   tau(  78) = (  15.1865280  22.0820242   1.8239442  )
        79           f   tau(  79) = (   1.1542705  32.9459781   6.4611950  )
        80           f   tau(  80) = (  12.4480915  14.5612676   6.3503796  )
        81           f   tau(  81) = (  18.9944798  27.7386792   1.1000621  )
        82           f   tau(  82) = (  22.6689534   9.3923146   2.4205471  )
        83           f   tau(  83) = (   8.6401397   8.9046126   7.0742618  )
        84           f   tau(  84) = (   4.9656662  27.2509772   5.7537768  )
        85           f   tau(  85) = (  26.1568738  35.3093273   1.5313371  )
        86           f   tau(  86) = (  15.5305916  16.9760506   1.9687703  )
        87           f   tau(  87) = (   1.4777458   1.3339645   6.6429868  )
        88           f   tau(  88) = (  12.1040280  19.6672412   6.2055535  )
        89           o   tau(  89) = (  21.7540924  32.2531262   2.6999466  )
        90           o   tau(  90) = (  19.9371890  13.9361410   0.7977445  )
        91           o   tau(  91) = (   5.8805271   4.3901656   5.4743772  )
        92           o   tau(  92) = (   7.6974305  22.7071508   7.3765794  )

     number of k points=     1
                       cart. coord. in units 2pi/alat
        k(    1) = (  -0.0173846  -0.0136155   0.0280554), wk =   2.0000000

     Dense  grid:  1033913 G-vectors     FFT dimensions: ( 180, 225,  54)

     Smooth grid:   562685 G-vectors     FFT dimensions: ( 144, 192,  45)

     Largest allocated arrays     est. size (Mb)     dimensions
        Kohn-Sham Wavefunctions        21.49 Mb     (   5867,  240)
        NL pseudopotentials            65.89 Mb     (   5867,  736)
        Each V/rho on FFT grid          3.09 Mb     ( 202500)
        Each G-vector array             0.66 Mb     (  86160)
        G-vector shells                 0.66 Mb     (  86160)
     Largest temporary arrays     est. size (Mb)     dimensions
        Auxiliary wavefunctions        85.94 Mb     (   5867,  960)
        Each subspace H/S matrix       14.06 Mb     ( 960, 960)
        Each <psi_i|beta_j> matrix      2.70 Mb     (    736,  240)
        Arrays for rho mixing          24.72 Mb     ( 202500,   8)

     Check: negative/imaginary core charge=   -0.000033    0.000000

     Initial potential from superposition of free atoms

     starting charge  479.99314, renormalised to  480.00000
     Starting wfc are  368 atomic wfcs
     Checking if some PAW data can be deallocated... 

     total cpu time spent up to now is       43.7 secs

     per-process dynamical memory:   197.7 Mb

     Self-consistent Calculation

     iteration #  1     ecut=    60.00 Ry     beta=0.70
     Davidson diagonalization with overlap
     ethr =  1.00E-02,  avg # of iterations =  4.0

     total cpu time spent up to now is       99.7 secs

     total energy              =   -5750.62232389 Ry
     Harris-Foulkes estimate   =   -5758.94346373 Ry
     estimated scf accuracy    <    3307.19079222 Ry

     iteration #  2     ecut=    60.00 Ry     beta=0.70
     Davidson diagonalization with overlap
     ethr =  1.00E-02,  avg # of iterations =  7.0

     total cpu time spent up to now is      151.8 secs

     total energy              =   -5744.34486653 Ry
     Harris-Foulkes estimate   =   -5758.24716799 Ry
     estimated scf accuracy    <     367.07017541 Ry

     iteration #  3     ecut=    60.00 Ry     beta=0.70
     Davidson diagonalization with overlap
     ethr =  1.00E-02,  avg # of iterations =  5.0

     total cpu time spent up to now is      215.9 secs

     total energy              =   -5737.58377659 Ry
     Harris-Foulkes estimate   =   -5781.92334899 Ry
     estimated scf accuracy    <     176.96657943 Ry

     iteration #  4     ecut=    60.00 Ry     beta=0.70
     Davidson diagonalization with overlap
     ethr =  1.00E-02,  avg # of iterations =  6.0

     total cpu time spent up to now is      274.0 secs

     total energy              =   -5753.74495627 Ry
     Harris-Foulkes estimate   =   -5758.67916182 Ry
     estimated scf accuracy    <      17.80569713 Ry

     iteration #  5     ecut=    60.00 Ry     beta=0.70
     Davidson diagonalization with overlap
     ethr =  3.71E-03,  avg # of iterations =  6.0

     total cpu time spent up to now is      322.0 secs

     total energy              =   -5753.48619592 Ry
     Harris-Foulkes estimate   =   -5754.72578828 Ry
     estimated scf accuracy    <       3.82886640 Ry

     iteration #  6     ecut=    60.00 Ry     beta=0.70
     Davidson diagonalization with overlap
     ethr =  7.98E-04,  avg # of iterations =  5.0

     total cpu time spent up to now is      385.1 secs

     total energy              =   -5755.39272083 Ry
     Harris-Foulkes estimate   =   -5756.00213971 Ry
     estimated scf accuracy    <       2.90761178 Ry

     iteration #  7     ecut=    60.00 Ry     beta=0.70
     Davidson diagonalization with overlap
     ethr =  6.06E-04,  avg # of iterations =  1.0

     total cpu time spent up to now is      429.1 secs

     total energy              =   -5754.43876305 Ry
     Harris-Foulkes estimate   =   -5755.41646863 Ry
     estimated scf accuracy    <       1.82700059 Ry

     iteration #  8     ecut=    60.00 Ry     beta=0.70
     Davidson diagonalization with overlap
     ethr =  3.81E-04,  avg # of iterations =  5.0

     total cpu time spent up to now is      495.0 secs

     total energy              =   -5755.87301092 Ry
     Harris-Foulkes estimate   =   -5756.38781868 Ry
     estimated scf accuracy    <       5.20612764 Ry

     iteration #  9     ecut=    60.00 Ry     beta=0.70
     Davidson diagonalization with overlap
     ethr =  3.81E-04,  avg # of iterations =  1.0

     total cpu time spent up to now is      539.2 secs

     total energy              =   -5754.27443821 Ry
     Harris-Foulkes estimate   =   -5755.88134029 Ry
     estimated scf accuracy    <       4.29364247 Ry

     iteration # 10     ecut=    60.00 Ry     beta=0.70
     Davidson diagonalization with overlap
     ethr =  3.81E-04,  avg # of iterations =  5.0

     total cpu time spent up to now is      602.7 secs

     total energy              =   -5755.53267194 Ry
     Harris-Foulkes estimate   =   -5755.70342629 Ry
     estimated scf accuracy    <       1.19501829 Ry

     iteration # 11     ecut=    60.00 Ry     beta=0.70
     Davidson diagonalization with overlap
     ethr =  2.49E-04,  avg # of iterations =  1.0

     total cpu time spent up to now is      646.9 secs

     total energy              =   -5755.20690670 Ry
     Harris-Foulkes estimate   =   -5755.53756809 Ry
     estimated scf accuracy    <       0.88642781 Ry

     iteration # 12     ecut=    60.00 Ry     beta=0.70
     Davidson diagonalization with overlap
     ethr =  1.85E-04,  avg # of iterations =  6.0

     total cpu time spent up to now is      700.9 secs

     total energy              =   -5755.60345365 Ry
     Harris-Foulkes estimate   =   -5755.52327408 Ry
     estimated scf accuracy    <       0.23758931 Ry

     iteration # 13     ecut=    60.00 Ry     beta=0.70
     Davidson diagonalization with overlap
     ethr =  4.95E-05,  avg # of iterations =  6.0

     total cpu time spent up to now is      761.8 secs

     total energy              =   -5755.56755081 Ry
     Harris-Foulkes estimate   =   -5755.68393110 Ry
     estimated scf accuracy    <       1.07820355 Ry

     iteration # 14     ecut=    60.00 Ry     beta=0.70
     Davidson diagonalization with overlap
     ethr =  4.95E-05,  avg # of iterations =  1.0

     total cpu time spent up to now is      806.0 secs

     total energy              =   -5755.29303460 Ry
     Harris-Foulkes estimate   =   -5755.56960522 Ry
     estimated scf accuracy    <       0.86430167 Ry

     iteration # 15     ecut=    60.00 Ry     beta=0.70
     Davidson diagonalization with overlap
     ethr =  4.95E-05,  avg # of iterations =  5.0

     total cpu time spent up to now is      870.7 secs

     total energy              =   -5755.50360453 Ry
     Harris-Foulkes estimate   =   -5755.51203167 Ry
     estimated scf accuracy    <       0.08622675 Ry

     iteration # 16     ecut=    60.00 Ry     beta=0.70
     Davidson diagonalization with overlap
     ethr =  1.80E-05,  avg # of iterations =  1.0

     total cpu time spent up to now is      914.9 secs

     total energy              =   -5755.49681930 Ry
     Harris-Foulkes estimate   =   -5755.50399816 Ry
     estimated scf accuracy    <       0.07085074 Ry

     iteration # 17     ecut=    60.00 Ry     beta=0.70
     Davidson diagonalization with overlap
     ethr =  1.48E-05,  avg # of iterations =  1.0

     total cpu time spent up to now is      959.1 secs

     total energy              =   -5755.48762494 Ry
     Harris-Foulkes estimate   =   -5755.49769806 Ry
     estimated scf accuracy    <       0.04909030 Ry

     iteration # 18     ecut=    60.00 Ry     beta=0.70
     Davidson diagonalization with overlap
     ethr =  1.02E-05,  avg # of iterations =  6.0

     total cpu time spent up to now is     1011.1 secs

     total energy              =   -5755.49619268 Ry
     Harris-Foulkes estimate   =   -5755.49653473 Ry
     estimated scf accuracy    <       0.00226432 Ry

     iteration # 19     ecut=    60.00 Ry     beta=0.70
     Davidson diagonalization with overlap
     ethr =  4.72E-07,  avg # of iterations =  5.0

     total cpu time spent up to now is     1081.3 secs

     total energy              =   -5755.49797039 Ry
     Harris-Foulkes estimate   =   -5755.49842979 Ry
     estimated scf accuracy    <       0.00526091 Ry

     iteration # 20     ecut=    60.00 Ry     beta=0.70
     Davidson diagonalization with overlap
     ethr =  4.72E-07,  avg # of iterations =  1.0

     total cpu time spent up to now is     1125.4 secs

     total energy              =   -5755.49721793 Ry
     Harris-Foulkes estimate   =   -5755.49798116 Ry
     estimated scf accuracy    <       0.00433605 Ry

     iteration # 21     ecut=    60.00 Ry     beta=0.70
     Davidson diagonalization with overlap
     ethr =  4.72E-07,  avg # of iterations =  8.0

     total cpu time spent up to now is     1175.5 secs

     total energy              =   -5755.49650189 Ry
     Harris-Foulkes estimate   =   -5755.49739527 Ry
     estimated scf accuracy    <       0.00172287 Ry

     iteration # 22     ecut=    60.00 Ry     beta=0.70
     Davidson diagonalization with overlap
     ethr =  3.59E-07,  avg # of iterations =  5.0

     total cpu time spent up to now is     1242.4 secs

     total energy              =   -5755.49808295 Ry
     Harris-Foulkes estimate   =   -5755.49833428 Ry
     estimated scf accuracy    <       0.00529747 Ry

     iteration # 23     ecut=    60.00 Ry     beta=0.70
     Davidson diagonalization with overlap
     ethr =  3.59E-07,  avg # of iterations =  1.0

     total cpu time spent up to now is     1286.6 secs

     total energy              =   -5755.49616121 Ry
     Harris-Foulkes estimate   =   -5755.49808925 Ry
     estimated scf accuracy    <       0.00474814 Ry

     iteration # 24     ecut=    60.00 Ry     beta=0.70
     Davidson diagonalization with overlap
     ethr =  3.59E-07,  avg # of iterations =  5.0

     total cpu time spent up to now is     1354.1 secs

     total energy              =   -5755.49720451 Ry
     Harris-Foulkes estimate   =   -5755.49778843 Ry
     estimated scf accuracy    <       0.00189965 Ry

     iteration # 25     ecut=    60.00 Ry     beta=0.70
     Davidson diagonalization with overlap
     ethr =  3.59E-07,  avg # of iterations =  2.0

     total cpu time spent up to now is     1399.0 secs

     total energy              =   -5755.49701874 Ry
     Harris-Foulkes estimate   =   -5755.49724004 Ry
     estimated scf accuracy    <       0.00081993 Ry

     iteration # 26     ecut=    60.00 Ry     beta=0.70
     Davidson diagonalization with overlap
     ethr =  1.71E-07,  avg # of iterations =  5.0

     total cpu time spent up to now is     1463.1 secs

     total energy              =   -5755.49741653 Ry
     Harris-Foulkes estimate   =   -5755.49762596 Ry
     estimated scf accuracy    <       0.00100128 Ry

     iteration # 27     ecut=    60.00 Ry     beta=0.70
     Davidson diagonalization with overlap
     ethr =  1.71E-07,  avg # of iterations =  1.0

     total cpu time spent up to now is     1507.2 secs

     total energy              =   -5755.49730560 Ry
     Harris-Foulkes estimate   =   -5755.49742534 Ry
     estimated scf accuracy    <       0.00058540 Ry

     iteration # 28     ecut=    60.00 Ry     beta=0.70
     Davidson diagonalization with overlap
     ethr =  1.22E-07,  avg # of iterations =  6.0

     total cpu time spent up to now is     1560.5 secs

     total energy              =   -5755.49744796 Ry
     Harris-Foulkes estimate   =   -5755.49746200 Ry
     estimated scf accuracy    <       0.00007753 Ry

     iteration # 29     ecut=    60.00 Ry     beta=0.70
     Davidson diagonalization with overlap
     ethr =  1.62E-08,  avg # of iterations =  4.0

     total cpu time spent up to now is     1612.5 secs

     total energy              =   -5755.49745179 Ry
     Harris-Foulkes estimate   =   -5755.49746297 Ry
     estimated scf accuracy    <       0.00004792 Ry

     iteration # 30     ecut=    60.00 Ry     beta=0.70
     Davidson diagonalization with overlap
     ethr =  9.98E-09,  avg # of iterations =  8.0

     total cpu time spent up to now is     1666.9 secs

     total energy              =   -5755.49745777 Ry
     Harris-Foulkes estimate   =   -5755.49746563 Ry
     estimated scf accuracy    <       0.00002387 Ry

     iteration # 31     ecut=    60.00 Ry     beta=0.70
     Davidson diagonalization with overlap
     ethr =  4.97E-09,  avg # of iterations =  7.0

     total cpu time spent up to now is     1715.8 secs

     total energy              =   -5755.49745851 Ry
     Harris-Foulkes estimate   =   -5755.49745983 Ry
     estimated scf accuracy    <       0.00000725 Ry

     iteration # 32     ecut=    60.00 Ry     beta=0.70
     Davidson diagonalization with overlap
     ethr =  1.51E-09,  avg # of iterations =  5.0

     total cpu time spent up to now is     1779.0 secs

     total energy              =   -5755.49746230 Ry
     Harris-Foulkes estimate   =   -5755.49746368 Ry
     estimated scf accuracy    <       0.00000940 Ry

     iteration # 33     ecut=    60.00 Ry     beta=0.70
     Davidson diagonalization with overlap
     ethr =  1.51E-09,  avg # of iterations =  2.0

     total cpu time spent up to now is     1823.8 secs

     total energy              =   -5755.49746169 Ry
     Harris-Foulkes estimate   =   -5755.49746240 Ry
     estimated scf accuracy    <       0.00000703 Ry

     iteration # 34     ecut=    60.00 Ry     beta=0.70
     Davidson diagonalization with overlap
     ethr =  1.46E-09,  avg # of iterations =  5.0

     total cpu time spent up to now is     1872.5 secs

     total energy              =   -5755.49746193 Ry
     Harris-Foulkes estimate   =   -5755.49746220 Ry
     estimated scf accuracy    <       0.00000247 Ry

     iteration # 35     ecut=    60.00 Ry     beta=0.70
     Davidson diagonalization with overlap
     ethr =  5.14E-10,  avg # of iterations =  6.0

     total cpu time spent up to now is     1920.0 secs

     total energy              =   -5755.49746181 Ry
     Harris-Foulkes estimate   =   -5755.49746203 Ry
     estimated scf accuracy    <       0.00000159 Ry

     iteration # 36     ecut=    60.00 Ry     beta=0.70
     Davidson diagonalization with overlap
     ethr =  3.31E-10,  avg # of iterations =  6.0

     total cpu time spent up to now is     1971.4 secs

     total energy              =   -5755.49746202 Ry
     Harris-Foulkes estimate   =   -5755.49746205 Ry
     estimated scf accuracy    <       0.00000020 Ry

     iteration # 37     ecut=    60.00 Ry     beta=0.70
     Davidson diagonalization with overlap
     ethr =  4.08E-11,  avg # of iterations =  5.0

     total cpu time spent up to now is     2039.9 secs

     total energy              =   -5755.49746208 Ry
     Harris-Foulkes estimate   =   -5755.49746213 Ry
     estimated scf accuracy    <       0.00000015 Ry

     iteration # 38     ecut=    60.00 Ry     beta=0.70
     Davidson diagonalization with overlap
     ethr =  3.05E-11,  avg # of iterations =  6.0

     total cpu time spent up to now is     2090.9 secs

     End of self-consistent calculation

          k =-0.0174-0.0136 0.0281 ( 70282 PWs)   bands (ev):

   -23.7103 -23.7094 -23.7033 -23.7020 -23.6571 -23.6482 -23.6373 -23.6290
   -23.4260 -23.4226 -23.4120 -23.4111 -23.3713 -23.3642 -23.3475 -23.3410
   -23.1905 -23.1835 -23.1524 -23.1489 -23.0347 -23.0309 -23.0274 -23.0247
   -23.0180 -23.0171 -23.0151 -23.0134 -22.9650 -22.9621 -22.9589 -22.9561
   -14.9359 -14.9352 -14.9338 -14.9329 -14.3393 -14.3370 -14.3363 -14.3337
   -14.2676 -14.2621 -14.2489 -14.2441 -11.4437 -11.4433 -11.4345 -11.4339
   -11.3022 -11.3002 -11.2948 -11.2916 -11.2431 -11.2397 -11.2342 -11.2323
   -11.2031 -11.1969 -11.1680 -11.1612  -8.4878  -8.4864  -8.4727  -8.4716
    -8.3815  -8.3805  -8.3545  -8.3528  -8.1843  -8.1820  -8.1690  -8.1673
    -8.1422  -8.1381  -8.1267  -8.1224  -6.8511  -6.8493  -6.8119  -6.8060
    -6.5918  -6.5847  -6.5766  -6.5737  -6.4764  -6.4738  -6.4162  -6.4149
    -6.1389  -6.1369  -6.1190  -6.1166  -5.9803  -5.9772  -5.9482  -5.9440
    -5.8973  -5.8926  -5.8281  -5.8241  -5.5829  -5.5765  -5.5323  -5.5287
    -5.4676  -5.4652  -5.4025  -5.4004  -5.3231  -5.3210  -5.2885  -5.2801
    -5.1490  -5.1444  -5.0974  -5.0930  -4.8239  -4.8126  -4.7192  -4.7172
    -4.6740  -4.6726  -4.5489  -4.5464  -4.4194  -4.4185  -4.3654  -4.3640
    -4.2481  -4.2444  -4.1986  -4.1984  -3.8807  -3.8728  -3.8066  -3.8019
    -3.7244  -3.7218  -3.5342  -3.5310  -3.3977  -3.3950  -3.3689  -3.3657
    -3.3172  -3.3094  -3.2430  -3.2414  -3.1080  -3.1060  -3.0846  -3.0833
    -3.0268  -3.0212  -2.9657  -2.9620  -2.5641  -2.5572  -2.4867  -2.4831
    -2.4459  -2.4442  -2.4296  -2.4269  -2.3778  -2.3757  -2.3542  -2.3525
    -2.2269  -2.2174  -2.2042  -2.2011  -2.0865  -2.0856  -2.0522  -2.0517
    -1.9833  -1.9765  -1.9292  -1.9232  -1.4462  -1.4445  -1.4109  -1.4101
    -1.3917  -1.3886  -1.3462  -1.3443  -1.3292  -1.3266  -1.2652  -1.2642
    -1.2087  -1.2059  -1.1304  -1.1291  -0.9929  -0.9901  -0.9322  -0.9274
    -0.7860  -0.7844  -0.7287  -0.7277   0.0721   0.0726   0.1023   0.1045
     0.2549   0.2565   0.2723   0.2733   0.3923   0.3930   0.4337   0.4365
     0.9919   0.9961   1.0316   1.0334   1.2321   1.2341   1.3375   1.3412
     1.4412   1.4419   1.4773   1.4820   1.4924   1.4962   1.6047   1.6060
     1.6684   1.6693   1.6908   1.6931   1.8871   1.8921   1.9111   1.9171
 TIME (initial):        0.0
* Atoms contributing density to the main cell
  Number of atoms:   28980
 
 TIME (set up the environment):        0.1
 DOCALC: T F T T
 ESAVE:       0.000000000000       0.000000000000       0.000000000000
* XDM: using PAW all-electron density reconstruction? T
 TIME (promolecular grid):       53.0
 TIME (calculation of b grid):       53.6
 TIME (calculation of volumes and moments):      377.5
 
+ Volume and moments
# All results in atomic units.
# i              V                  Vfree                 M1                  M2                  M3
  1        33.7962312590        39.0349749523         3.8757859397        54.1476329082      1081.5488045232
  2        33.7955461038        39.0349749523         3.8771790006        54.1732271018      1082.0621128267
  3        33.7962312590        39.0349749523         3.8757859397        54.1476329082      1081.5488045232
  4        33.7955461038        39.0349749523         3.8771790006        54.1732271018      1082.0621128267
  5        34.0389505638        39.0349749523         3.8732075514        53.7530940862      1055.3438551178
  6        34.0423138095        39.0349749523         3.8736600022        53.7475148163      1054.8915093217
  7        34.0389505638        39.0349749523         3.8732075514        53.7530940862      1055.3438551177
  8        34.0423138095        39.0349749523         3.8736600022        53.7475148163      1054.8915093216
  9        33.8049023890        39.0349749523         3.8282380332        53.2221230089      1062.3320979274
 10        33.7969267165        39.0349749523         3.8308426637        53.2831933467      1063.8874830932
 11        33.8049023890        39.0349749523         3.8282380332        53.2221230089      1062.3320979273
 12        33.7969267165        39.0349749523         3.8308426637        53.2831933467      1063.8874830932
 13        33.8762940296        39.0349749523         3.8399356008        53.3951131583      1065.1303565793
 14        33.8713260208        39.0349749523         3.8380179382        53.3449031615      1063.6501049119
 15        33.8762940296        39.0349749523         3.8399356008        53.3951131583      1065.1303565793
 16        33.8713260208        39.0349749523         3.8380179382        53.3449031615      1063.6501049119
 17        34.1281823979        39.0349749523         3.8440484274        53.4039447790      1050.9507161500
 18        34.1237881352        39.0349749523         3.8458470367        53.4201341415      1050.7518729663
 19        34.1281823979        39.0349749523         3.8440484274        53.4039447790      1050.9507161500
 20        34.1237881352        39.0349749523         3.8458470367        53.4201341415      1050.7518729663
 21        34.2821293144        39.0349749523         3.8642550664        50.9565447158       972.0670173101
 22        34.2858989894        39.0349749523         3.8693752700        51.0108468363       972.3948261263
 23        34.2821293144        39.0349749523         3.8642550664        50.9565447158       972.0670173101
 24        34.2858989894        39.0349749523         3.8693752700        51.0108468363       972.3948261264
 25        33.9863218512        39.0349749523         3.7980421637        52.6016055411      1044.1144447252
 26        33.9904533469        39.0349749523         3.7953209041        52.5429445146      1042.3646103077
 27        33.9863218512        39.0349749523         3.7980421637        52.6016055411      1044.1144447252
 28        33.9904533469        39.0349749523         3.7953209041        52.5429445146      1042.3646103077
 29        34.2383183223        39.0349749523         3.7453055558        51.9852553996      1029.5748964789
 30        34.2247356677        39.0349749523         3.7503732868        52.0652732855      1031.1928496167
 31        34.2383183223        39.0349749523         3.7453055558        51.9852553996      1029.5748964789
 32        34.2247356677        39.0349749523         3.7503732868        52.0652732855      1031.1928496167
 33        34.2697613655        39.0349749523         3.8537145889        50.7731527943       968.6796445223
 34        34.2717736309        39.0349749523         3.8569177807        50.8002624558       968.5728508116
 35        34.2697613655        39.0349749523         3.8537145889        50.7731527943       968.6796445223
 36        34.2717736309        39.0349749523         3.8569177807        50.8002624558       968.5728508116
 37        34.3266423159        39.0349749523         3.7447624399        49.5817473100       962.8482181860
 38        34.3203826272        39.0349749523         3.7475270196        49.6267616515       963.6079851027
 39        34.3266423159        39.0349749523         3.7447624399        49.5817473100       962.8482181860
 40        34.3203826272        39.0349749523         3.7475270196        49.6267616515       963.6079851027
 41        34.2774241043        39.0349749523         3.7385495138        51.4443736903      1009.5275837282
 42        34.2809452809        39.0349749523         3.7355022173        51.3742185690      1007.7468252320
 43        34.2774241043        39.0349749523         3.7385495138        51.4443736903      1009.5275837282
 44        34.2809452809        39.0349749523         3.7355022173        51.3742185690      1007.7468252319
 45        34.3798176974        39.0349749523         3.7587208570        49.6444994524       955.6445345408
 46        34.3822046270        39.0349749523         3.7568069664        49.6117599557       954.7617218211
 47        34.3798176974        39.0349749523         3.7587208570        49.6444994524       955.6445345408
 48        34.3822046270        39.0349749523         3.7568069664        49.6117599557       954.7617218211
 49       137.8653821898       174.2312296757         8.7192603343       219.6836954929      6118.2608055830
 50       137.8935593319       174.2312296757         8.7156453583       219.6454218823      6116.6400505857
 51       137.8653821898       174.2312296757         8.7192603343       219.6836954929      6118.2608055830
 52       137.8935593319       174.2312296757         8.7156453583       219.6454218823      6116.6400505857
 53       136.5432353668       174.2312296757         9.2611156811       232.4123373426      6446.4336860070
 54       136.5944090699       174.2312296757         9.2411324290       231.9616183018      6438.2261570082
 55       136.5432353668       174.2312296757         9.2611156811       232.4123373426      6446.4336860071
 56       136.5944090699       174.2312296757         9.2411324290       231.9616183018      6438.2261570083
 57        17.7445026548        19.2806797260         4.6120311338        28.4883226194       243.6834573744
 58        17.7476372264        19.2806797260         4.6147716504        28.5053155565       243.7898725637
 59        17.7445026548        19.2806797260         4.6120311338        28.4883226194       243.6834573744
 60        17.7476372264        19.2806797260         4.6147716504        28.5053155565       243.7898725637
 61        17.7540889106        19.2806797260         4.6166751207        28.2926439168       238.9151359144
 62        17.7466880487        19.2806797260         4.6090835348        28.2404124057       238.4935312211
 63        17.7540889106        19.2806797260         4.6166751207        28.2926439168       238.9151359144
 64        17.7466880487        19.2806797260         4.6090835348        28.2404124057       238.4935312211
 65        17.7167794077        19.2806797260         4.5667786746        28.0378504568       238.6443657057
 66        17.7101410641        19.2806797260         4.5612142919        27.9903034333       238.1701066554
 67        17.7167794077        19.2806797260         4.5667786746        28.0378504568       238.6443657057
 68        17.7101410641        19.2806797260         4.5612142919        27.9903034333       238.1701066554
 69        17.7947770313        19.2806797260         4.6486502283        28.6768231712       243.0673159285
 70        17.7945803336        19.2806797260         4.6512305293        28.7009669374       243.3707164905
 71        17.7947770313        19.2806797260         4.6486502283        28.6768231712       243.0673159285
 72        17.7945803336        19.2806797260         4.6512305293        28.7009669374       243.3707164905
 73        17.9462717781        19.2806797260         4.6318497499        28.6340698497       243.6769581602
 74        17.9441810126        19.2806797260         4.6346157710        28.6545647304       243.8249022991
 75        17.9462717781        19.2806797260         4.6318497499        28.6340698497       243.6769581602
 76        17.9441810126        19.2806797260         4.6346157710        28.6545647304       243.8249022991
 77        17.6945245689        19.2806797260         4.6034169114        28.1740336585       238.0668487551
 78        17.6937665430        19.2806797260         4.6000691766        28.1436598371       237.7977379028
 79        17.6945245689        19.2806797260         4.6034169114        28.1740336585       238.0668487551
 80        17.6937665430        19.2806797260         4.6000691766        28.1436598371       237.7977379028
 81        17.8742450265        19.2806797260         4.5867101795        28.2330488567       239.6408612555
 82        17.8737041436        19.2806797260         4.5896735233        28.2630108506       240.0053555024
 83        17.8742450265        19.2806797260         4.5867101795        28.2330488567       239.6408612555
 84        17.8737041436        19.2806797260         4.5896735233        28.2630108506       240.0053555024
 85        17.7976099402        19.2806797260         4.5830966927        27.9968770608       234.9972139820
 86        17.7961947049        19.2806797260         4.5792239139        27.9619276898       234.6282608404
 87        17.7976099402        19.2806797260         4.5830966927        27.9968770608       234.9972139820
 88        17.7961947049        19.2806797260         4.5792239139        27.9619276898       234.6282608404
 89        22.2819675268        23.7788846669         4.5616604193        33.7455564721       334.6441584699
 90        22.2829757190        23.7788846669         4.5624769398        33.7533147658       334.6981513522
 91        22.2819675268        23.7788846669         4.5616604193        33.7455564721       334.6441584699
 92        22.2829757190        23.7788846669         4.5624769398        33.7533147658       334.6981513522
 
+ Dispersion coefficients
# All results in atomic units.
# i   j              C6                  C8                  C10                   Rc                  Rvdw
  1   1        19.9275280926       835.2074851680     38579.1916014160         6.6345339219         7.2615306989
  2   1        19.9309066204       835.3963705096     38588.8627221466         6.6346676173         7.2615847787
  2   2        19.9342864393       835.5853259982     38598.5376134155         6.6348013139         7.2616388589
  3   1        19.9275280926       835.2074851680     38579.1916014161         6.6345339219         7.2615306989
  3   2        19.9309066204       835.3963705096     38588.8627221467         6.6346676173         7.2615847787
  3   3        19.9275280926       835.2074851680     38579.1916014162         6.6345339219         7.2615306989
  4   1        19.9309066204       835.3963705096     38588.8627221467         6.6346676173         7.2615847787
  4   2        19.9342864393       835.5853259982     38598.5376134156         6.6348013139         7.2616388589
  4   3        19.9309066204       835.3963705096     38588.8627221468         6.6346676173         7.2615847787
  4   4        19.9342864393       835.5853259982     38598.5376134157         6.6348013139         7.2616388589
  5   1        19.9921520818       835.1402129426     38332.6236435444         6.6184688311         7.2550323697
  5   2        19.9955267225       835.3286201189     38342.2223550434         6.6186030027         7.2550866421
  5   3        19.9921520818       835.1402129426     38332.6236435445         6.6184688311         7.2550323697
  5   4        19.9955267225       835.3286201189     38342.2223550435         6.6186030027         7.2550866421
  5   5        20.0572924080       835.0764927549     38085.3549961275         6.6023199024         7.2485001280
  6   1        19.9943081513       835.1384662053     38327.2237889713         6.6180565610         7.2548656064
  6   2        19.9976831902       835.3268796303     38336.8215852137         6.6181907404         7.2549198820
  6   3        19.9943081513       835.1384662053     38327.2237889715         6.6180565610         7.2548656064
  6   4        19.9976831902       835.3268796303     38336.8215852138         6.6181907404         7.2549198820
  6   5        20.0594547963       835.0744105865     38079.9199430273         6.6019056586         7.2483325664
  6   6        20.0616174194       835.0723183306     38074.4840680710         6.6014913712         7.2481649871
  7   1        19.9921520818       835.1402129426     38332.6236435443         6.6184688311         7.2550323697
  7   2        19.9955267225       835.3286201189     38342.2223550433         6.6186030027         7.2550866421
  7   3        19.9921520818       835.1402129426     38332.6236435444         6.6184688311         7.2550323697
  7   4        19.9955267225       835.3286201189     38342.2223550434         6.6186030027         7.2550866421
  7   5        20.0572924080       835.0764927549     38085.3549961273         6.6023199024         7.2485001280
  7   6        20.0594547963       835.0744105865     38079.9199430272         6.6019056586         7.2483325664
  7   7        20.0572924080       835.0764927549     38085.3549961272         6.6023199024         7.2485001280
  8   1        19.9943081513       835.1384662053     38327.2237889712         6.6180565610         7.2548656064
  8   2        19.9976831902       835.3268796303     38336.8215852136         6.6181907404         7.2549198820
  8   3        19.9943081513       835.1384662053     38327.2237889713         6.6180565610         7.2548656064
  8   4        19.9976831902       835.3268796303     38336.8215852137         6.6181907404         7.2549198820
  8   5        20.0594547963       835.0744105865     38079.9199430272         6.6019056586         7.2483325664
  8   6        20.0616174194       835.0723183306     38074.4840680708         6.6014913712         7.2481649871
  8   7        20.0594547963       835.0744105865     38079.9199430271         6.6019056586         7.2483325664
  8   8        20.0616174194       835.0723183306     38074.4840680707         6.6014913712         7.2481649871
  9   1        19.8070634560       828.1311598707     38205.1152025177         6.6284653843         7.2590759754
  9   2        19.8103978695       828.3175690915     38214.6492991365         6.6285990471         7.2591300420
  9   3        19.8070634560       828.1311598707     38205.1152025178         6.6284653843         7.2590759754
  9   4        19.8103978695       828.3175690915     38214.6492991366         6.6285990471         7.2591300420
  9   5        19.8717863943       828.0781221757     37961.0434362860         6.6123776960         7.2525685055
  9   6        19.8739283555       828.0761196226     37955.6761920229         6.6119650321         7.2524015830
  9   7        19.8717863943       828.0781221757     37961.0434362859         6.6123776960         7.2525685055
  9   8        19.8739283555       828.0761196226     37955.6761920227         6.6119650321         7.2524015830
  9   9        19.6881084883       821.1424598193     37836.0384410068         6.6223973796         7.2566214675
 10   1        19.8115180038       828.5102479301     38229.8628510477         6.6291646790         7.2593588401
 10   2        19.8148548900       828.6968035873     38239.4059903227         6.6292983368         7.2594129047
 10   3        19.8115180038       828.5102479301     38229.8628510478         6.6291646790         7.2593588401
 10   4        19.8148548900       828.6968035873     38239.4059903227         6.6292983368         7.2594129047
 10   5        19.8762198933       828.4563444205     37985.6707956018         6.6130799688         7.2528525748
 10   6        19.8783624144       828.4543656916     37980.3025936091         6.6126673647         7.2526856765
 10   7        19.8762198933       828.4563444205     37985.6707956017         6.6130799688         7.2528525748
 10   8        19.8783624144       828.4543656916     37980.3025936090         6.6126673647         7.2526856765
 10   9        19.6924794555       821.5164472731     37860.4601796965         6.6230969850         7.2569044579
 10  10        19.6968555258       821.8907327536     37884.9023296162         6.6237965212         7.2571874203
 11   1        19.8070634560       828.1311598707     38205.1152025177         6.6284653843         7.2590759754
 11   2        19.8103978695       828.3175690915     38214.6492991365         6.6285990471         7.2591300420
 11   3        19.8070634560       828.1311598707     38205.1152025179         6.6284653843         7.2590759754
 11   4        19.8103978695       828.3175690915     38214.6492991366         6.6285990471         7.2591300420
 11   5        19.8717863943       828.0781221757     37961.0434362860         6.6123776960         7.2525685055
 11   6        19.8739283555       828.0761196226     37955.6761920229         6.6119650321         7.2524015830
 11   7        19.8717863943       828.0781221757     37961.0434362859         6.6123776960         7.2525685055
 11   8        19.8739283555       828.0761196226     37955.6761920227         6.6119650321         7.2524015830
 11   9        19.6881084883       821.1424598193     37836.0384410068         6.6223973796         7.2566214675
 11  10        19.6924794555       821.5164472731     37860.4601796965         6.6230969850         7.2569044579
 11  11        19.6881084883       821.1424598193     37836.0384410068         6.6223973796         7.2566214675
 12   1        19.8115180038       828.5102479301     38229.8628510477         6.6291646790         7.2593588401
 12   2        19.8148548900       828.6968035873     38239.4059903227         6.6292983368         7.2594129047
 12   3        19.8115180038       828.5102479301     38229.8628510478         6.6291646790         7.2593588401
 12   4        19.8148548900       828.6968035873     38239.4059903228         6.6292983368         7.2594129047
 12   5        19.8762198933       828.4563444205     37985.6707956018         6.6130799688         7.2528525748
 12   6        19.8783624144       828.4543656916     37980.3025936092         6.6126673647         7.2526856765
 12   7        19.8762198933       828.4563444205     37985.6707956017         6.6130799688         7.2528525748
 12   8        19.8783624144       828.4543656916     37980.3025936090         6.6126673647         7.2526856765
 12   9        19.6924794555       821.5164472731     37860.4601796965         6.6230969850         7.2569044579
 12  10        19.6968555258       821.8907327536     37884.9023296163         6.6237965212         7.2571874203
 12  11        19.6924794555       821.5164472731     37860.4601796965         6.6230969850         7.2569044579
 12  12        19.6968555258       821.8907327536     37884.9023296163         6.6237965212         7.2571874203
 13   1        19.8582941755       830.3535115826     38302.4457264623         6.6283947619         7.2590474087
 13   2        19.8616389877       830.5404906791     38312.0080113278         6.6285284466         7.2591014841
 13   3        19.8582941755       830.3535115827     38302.4457264624         6.6283947619         7.2590474087
 13   4        19.8616389877       830.5404906790     38312.0080113279         6.6285284466         7.2591014841
 13   5        19.9231478485       830.2990711877     38057.6468594217         6.6123058655         7.2525394501
 13   6        19.9252954303       830.2970756718     38052.2650495029         6.6118931603         7.2523725108
 13   7        19.9231478485       830.2990711877     38057.6468594216         6.6123058655         7.2525394501
 13   8        19.9252954303       830.2970756718     38052.2650495028         6.6118931603         7.2523725108
 13   9        19.7389730036       823.3438111582     37932.2955361799         6.6223258121         7.2565925185
 13  10        19.7433595195       823.7189601347     37956.7896725445         6.6230255065         7.2568755449
 13  11        19.7389730036       823.3438111582     37932.2955361799         6.6223258121         7.2565925185
 13  12        19.7433595195       823.7189601347     37956.7896725445         6.6230255065         7.2568755449
 13  13        19.7899733117       825.5512390568     38028.8064854332         6.6222542852         7.2565635858
 14   1        19.8518584029       829.9017333954     38273.0763677061         6.6276607463         7.2587504994
 14   2        19.8552014662       830.0885933279     38282.6306064706         6.6277944405         7.2588045787
 14   3        19.8518584029       829.9017333954     38273.0763677062         6.6276607463         7.2587504994
 14   4        19.8552014662       830.0885933279     38282.6306064707         6.6277944405         7.2588045787
 14   5        19.9167047999       829.8472866433     38028.3751987490         6.6115685396         7.2522412017
 14   6        19.9188516556       829.8452706993     38022.9948113703         6.6111557644         7.2520742342
 14   7        19.9167047999       829.8472866433     38028.3751987489         6.6115685396         7.2522412017
 14   8        19.9188516556       829.8452706993     38022.9948113701         6.6111557644         7.2520742342
 14   9        19.7325978346       822.8963170018     37903.2248440896         6.6215912859         7.2562954026
 14  10        19.7369813388       823.2712379319     37927.7009666757         6.6222910695         7.2565784651
 14  11        19.7325978346       822.8963170018     37903.2248440896         6.6215912859         7.2562954026
 14  12        19.7369813388       823.2712379319     37927.7009666758         6.6222910695         7.2565784651
 14  13        19.7835800282       825.1024943013     37999.6566343294         6.6215196755         7.2562664362
 14  14        19.7771894258       824.6539789964     37970.5259563036         6.6207849571         7.2559692426
 15   1        19.8582941755       830.3535115827     38302.4457264623         6.6283947619         7.2590474087
 15   2        19.8616389877       830.5404906791     38312.0080113278         6.6285284466         7.2591014841
 15   3        19.8582941755       830.3535115827     38302.4457264624         6.6283947619         7.2590474087
 15   4        19.8616389877       830.5404906791     38312.0080113279         6.6285284466         7.2591014841
 15   5        19.9231478485       830.2990711877     38057.6468594217         6.6123058655         7.2525394501
 15   6        19.9252954303       830.2970756718     38052.2650495029         6.6118931603         7.2523725108
 15   7        19.9231478485       830.2990711877     38057.6468594216         6.6123058655         7.2525394501
 15   8        19.9252954303       830.2970756718     38052.2650495028         6.6118931603         7.2523725108
 15   9        19.7389730036       823.3438111582     37932.2955361799         6.6223258121         7.2565925185
 15  10        19.7433595195       823.7189601347     37956.7896725445         6.6230255065         7.2568755449
 15  11        19.7389730036       823.3438111582     37932.2955361799         6.6223258121         7.2565925185
 15  12        19.7433595195       823.7189601347     37956.7896725445         6.6230255065         7.2568755449
 15  13        19.7899733117       825.5512390568     38028.8064854332         6.6222542852         7.2565635858
 15  14        19.7835800282       825.1024943013     37999.6566343293         6.6215196755         7.2562664362
 15  15        19.7899733117       825.5512390568     38028.8064854332         6.6222542852         7.2565635858
 16   1        19.8518584029       829.9017333955     38273.0763677065         6.6276607463         7.2587504994
 16   2        19.8552014662       830.0885933279     38282.6306064709         6.6277944405         7.2588045787
 16   3        19.8518584029       829.9017333955     38273.0763677066         6.6276607463         7.2587504994
 16   4        19.8552014662       830.0885933279     38282.6306064710         6.6277944405         7.2588045787
 16   5        19.9167047999       829.8472866433     38028.3751987493         6.6115685396         7.2522412017
 16   6        19.9188516556       829.8452706993     38022.9948113706         6.6111557644         7.2520742342
 16   7        19.9167047999       829.8472866433     38028.3751987492         6.6115685396         7.2522412017
 16   8        19.9188516556       829.8452706993     38022.9948113705         6.6111557644         7.2520742342
 16   9        19.7325978346       822.8963170018     37903.2248440899         6.6215912859         7.2562954026
 16  10        19.7369813388       823.2712379319     37927.7009666761         6.6222910695         7.2565784651
 16  11        19.7325978346       822.8963170018     37903.2248440899         6.6215912859         7.2562954026
 16  12        19.7369813388       823.2712379319     37927.7009666761         6.6222910695         7.2565784651
 16  13        19.7835800282       825.1024943013     37999.6566343297         6.6215196755         7.2562664362
 16  14        19.7771894258       824.6539789964     37970.5259563039         6.6207849571         7.2559692426
 16  15        19.7835800282       825.1024943013     37999.6566343297         6.6215196755         7.2562664362
 16  16        19.7771894258       824.6539789964     37970.5259563043         6.6207849571         7.2559692426
 17   1        19.9421888526       833.4851696653     38290.5810113643         6.6208033591         7.2559766862
 17   2        19.9455357992       833.6723738873     38300.1297376098         6.6209374676         7.2560309331
 17   3        19.9421888526       833.4851696653     38290.5810113644         6.6208033591         7.2559766862
 17   4        19.9455357992       833.6723738873     38300.1297376099         6.6209374676         7.2560309331
 17   5        20.0075644451       833.4395983286     38044.7500441243         6.6046663835         7.2494492796
 17   6        20.0097205556       833.4375298822     38039.3288097544         6.6042524168         7.2492818301
 17   7        20.0075644451       833.4395983286     38044.7500441241         6.6046663835         7.2494492796
 17   8        20.0097205556       833.4375298822     38039.3288097543         6.6042524168         7.2492818301
 17   9        19.8227593130       826.4646155235     37920.7391223946         6.6147152424         7.2535140430
 17  10        19.8271356703       826.8400736549     37945.2370063455         6.6154171056         7.2537979467
 17  11        19.8227593130       826.4646155235     37920.7391223946         6.6147152424         7.2535140430
 17  12        19.8271356703       826.8400736549     37945.2370063455         6.6154171056         7.2537979467
 17  13        19.8739464635       828.6792109948     38017.1543303536         6.6146436031         7.2534850650
 17  14        19.8675371592       828.2291463067     37987.9643616665         6.6139067374         7.2531870028
 17  15        19.8739464635       828.6792109948     38017.1543303536         6.6146436031         7.2534850650
 17  16        19.8675371592       828.2291463067     37987.9643616668         6.6139067374         7.2531870028
 17  17        19.9584763350       831.8272166924     38005.1134613345         6.6070111665         7.2503977443
 18   1        19.9456221766       833.5602220006     38287.3328305837         6.6203755967         7.2558036564
 18   2        19.9489708288       833.7474941667     38296.8834141991         6.6205097191         7.2558579089
 18   3        19.9456221766       833.5602220006     38287.3328305838         6.6203755967         7.2558036564
 18   4        19.9489708288       833.7474941667     38296.8834141992         6.6205097191         7.2558579089
 18   5        20.0109856826       833.5134461923     38041.4007045616         6.6042363346         7.2492753248
 18   6        20.0131422155       833.5113722307     38035.9781719769         6.6038223133         7.2491078532
 18   7        20.0109856826       833.5134461923     38041.4007045615         6.6042363346         7.2492753248
 18   8        20.0131422155       833.5113722307     38035.9781719768         6.6038223133         7.2491078532
 18   9        19.8261348198       826.5373159032     37917.4279479097         6.6142868291         7.2533407498
 18  10        19.8305146317       826.9129359257     37941.9317941838         6.6149887761         7.2536246874
 18  11        19.8261348198       826.5373159032     37917.4279479097         6.6142868291         7.2533407498
 18  12        19.8305146317       826.9129359257     37941.9317941839         6.6149887761         7.2536246874
 18  13        19.8773334771       828.7522291479     38013.8391702360         6.6142151601         7.2533117598
 18  14        19.8709220348       828.3020661659     37984.6465577784         6.6134782022         7.2530136603
 18  15        19.8773334771       828.7522291479     38013.8391702360         6.6142151601         7.2533117598
 18  16        19.8709220348       828.3020661659     37984.6465577788         6.6134782022         7.2530136603
 18  17        19.9618588873       831.8996949479     38001.7210863549         6.6065814447         7.2502239219
 18  18        19.9652437892       831.9722478969     37998.3302893596         6.6061516607         7.2500500742
 19   1        19.9421888526       833.4851696652     38290.5810113640         6.6208033591         7.2559766862
 19   2        19.9455357992       833.6723738873     38300.1297376095         6.6209374676         7.2560309331
 19   3        19.9421888526       833.4851696652     38290.5810113641         6.6208033591         7.2559766862
 19   4        19.9455357992       833.6723738873     38300.1297376096         6.6209374676         7.2560309331
 19   5        20.0075644451       833.4395983285     38044.7500441240         6.6046663835         7.2494492796
 19   6        20.0097205556       833.4375298822     38039.3288097541         6.6042524168         7.2492818301
 19   7        20.0075644451       833.4395983285     38044.7500441238         6.6046663835         7.2494492796
 19   8        20.0097205556       833.4375298822     38039.3288097540         6.6042524168         7.2492818301
 19   9        19.8227593130       826.4646155235     37920.7391223943         6.6147152424         7.2535140430
 19  10        19.8271356703       826.8400736549     37945.2370063452         6.6154171056         7.2537979467
 19  11        19.8227593130       826.4646155235     37920.7391223943         6.6147152424         7.2535140430
 19  12        19.8271356703       826.8400736549     37945.2370063452         6.6154171056         7.2537979467
 19  13        19.8739464635       828.6792109948     38017.1543303533         6.6146436031         7.2534850650
 19  14        19.8675371592       828.2291463067     37987.9643616662         6.6139067374         7.2531870028
 19  15        19.8739464635       828.6792109948     38017.1543303533         6.6146436031         7.2534850650
 19  16        19.8675371592       828.2291463067     37987.9643616665         6.6139067374         7.2531870028
 19  17        19.9584763350       831.8272166924     38005.1134613342         6.6070111665         7.2503977443
 19  18        19.9618588873       831.8996949479     38001.7210863546         6.6065814447         7.2502239219
 19  19        19.9584763350       831.8272166924     38005.1134613339         6.6070111665         7.2503977443
 20   1        19.9456221766       833.5602220006     38287.3328305840         6.6203755967         7.2558036564
 20   2        19.9489708288       833.7474941667     38296.8834141994         6.6205097191         7.2558579089
 20   3        19.9456221766       833.5602220006     38287.3328305841         6.6203755967         7.2558036564
 20   4        19.9489708288       833.7474941667     38296.8834141995         6.6205097191         7.2558579089
 20   5        20.0109856826       833.5134461923     38041.4007045619         6.6042363346         7.2492753248
 20   6        20.0131422155       833.5113722307     38035.9781719772         6.6038223133         7.2491078532
 20   7        20.0109856826       833.5134461923     38041.4007045617         6.6042363346         7.2492753248
 20   8        20.0131422155       833.5113722307     38035.9781719771         6.6038223133         7.2491078532
 20   9        19.8261348198       826.5373159032     37917.4279479100         6.6142868291         7.2533407498
 20  10        19.8305146317       826.9129359257     37941.9317941841         6.6149887761         7.2536246874
 20  11        19.8261348198       826.5373159032     37917.4279479100         6.6142868291         7.2533407498
 20  12        19.8305146317       826.9129359257     37941.9317941842         6.6149887761         7.2536246874
 20  13        19.8773334771       828.7522291479     38013.8391702363         6.6142151601         7.2533117598
 20  14        19.8709220348       828.3020661659     37984.6465577787         6.6134782022         7.2530136603
 20  15        19.8773334771       828.7522291479     38013.8391702363         6.6142151601         7.2533117598
 20  16        19.8709220348       828.3020661659     37984.6465577790         6.6134782022         7.2530136603
 20  17        19.9618588873       831.8996949480     38001.7210863552         6.6065814447         7.2502239219
 20  18        19.9652437892       831.9722478969     37998.3302893599         6.6061516607         7.2500500742
 20  19        19.9618588873       831.8996949479     38001.7210863549         6.6065814447         7.2502239219
 20  20        19.9652437892       831.9722478969     37998.3302893602         6.6061516607         7.2500500742
 21   1        20.0396451490       816.3366942914     36772.0890800224         6.5463398255         7.2258561869
 21   2        20.0430098636       816.5213091919     36781.3068084914         6.5464743324         7.2259105949
 21   3        20.0396451490       816.3366942914     36772.0890800225         6.5463398255         7.2258561869
 21   4        20.0430098636       816.5213091919     36781.3068084914         6.5464743324         7.2259105949
 21   5        20.1053110531       816.2201457710     36524.9305085878         6.5298833164         7.2191995289
 21   6        20.1074777644       816.2157755043     36519.4816186697         6.5294630427         7.2190295283
 21   7        20.1053110531       816.2201457710     36524.9305085877         6.5298833164         7.2191995289
 21   8        20.1074777644       816.2157755043     36519.4816186696         6.5294630427         7.2190295283
 21   9        19.9195853981       809.4070310273     36414.5996846896         6.5402238977         7.2233822941
 21  10        19.9239865186       809.7798036229     36438.4666415111         6.5409327799         7.2236690369
 21  11        19.9195853981       809.4070310273     36414.5996846896         6.5402238977         7.2233822941
 21  12        19.9239865186       809.7798036229     36438.4666415112         6.5409327799         7.2236690369
 21  13        19.9710260647       811.5781144671     36506.9648634484         6.5401422019         7.2233492481
 21  14        19.9645841454       811.1326187219     36478.5399961067         6.5393960794         7.2230474416
 21  15        19.9710260647       811.5781144671     36506.9648634484         6.5401422019         7.2233492481
 21  16        19.9645841454       811.1326187219     36478.5399961070         6.5393960794         7.2230474416
 21  17        20.0559452626       814.6505864898     36488.3572451874         6.5322718726         7.2201656999
 21  18        20.0593465541       814.7199093096     36484.7998955986         6.5318331298         7.2199882285
 21  19        20.0559452626       814.6505864898     36488.3572451871         6.5322718726         7.2201656999
 21  20        20.0593465541       814.7199093096     36484.7998955988         6.5318331298         7.2199882285
 21  21        20.1538929632       797.2864603915     34998.0745563117         6.4568275883         7.1896484870
 22   1        20.0541210075       816.8236393712     36784.6796511262         6.5457148254         7.2256033744
 22   2        20.0574904638       817.0084645221     36793.9054767999         6.5458493519         7.2256577903
 22   3        20.0541210075       816.8236393713     36784.6796511263         6.5457148254         7.2256033744
 22   4        20.0574904638       817.0084645221     36793.9054768000         6.5458493519         7.2256577903
 22   5        20.1197865789       816.7047310164     36537.2367299018         6.5292548921         7.2189453313
 22   6        20.1219549602       816.7003509584     36531.7834924181         6.5288345376         7.2187752980
 22   7        20.1197865789       816.7047310164     36537.2367299017         6.5292548921         7.2189453313
 22   8        20.1219549602       816.7003509584     36531.7834924179         6.5288345376         7.2187752980
 22   9        19.9338982893       809.8864883846     36426.8959201442         6.5395979662         7.2231291048
 22  10        19.9383081165       810.2597315805     36450.7852419980         6.5403069706         7.2234158971
 22  11        19.9338982893       809.8864883846     36426.8959201442         6.5395979662         7.2231291048
 22  12        19.9383081165       810.2597315805     36450.7852419980         6.5403069706         7.2234158971
 22  13        19.9853816280       812.0591001078     36519.3013118239         6.5395162218         7.2230960392
 22  14        19.9789329382       811.6132302282     36490.8583472131         6.5387699636         7.2227941778
 22  15        19.9853816280       812.0591001078     36519.3013118239         6.5395162218         7.2230960392
 22  16        19.9789329382       811.6132302282     36490.8583472134         6.5387699636         7.2227941778
 22  17        20.0703232576       815.1317772010     36500.5545949547         6.5316439369         7.2199117000
 22  18        20.0737306224       815.2012798968     36496.9995951631         6.5312051007         7.2197341907
 22  19        20.0703232576       815.1317772010     36500.5545949545         6.5316439369         7.2199117000
 22  20        20.0737306224       815.2012798968     36496.9995951633         6.5312051007         7.2197341907
 22  21        20.1683457197       797.7548803877     35009.3474955115         6.4561865135         7.1893891722
 22  22        20.1828162791       798.2238563919     35020.6325008455         6.4555452986         7.1891298008
 23   1        20.0396451490       816.3366942914     36772.0890800222         6.5463398255         7.2258561869
 23   2        20.0430098636       816.5213091919     36781.3068084911         6.5464743324         7.2259105949
 23   3        20.0396451490       816.3366942914     36772.0890800223         6.5463398255         7.2258561869
 23   4        20.0430098636       816.5213091919     36781.3068084912         6.5464743324         7.2259105949
 23   5        20.1053110531       816.2201457710     36524.9305085876         6.5298833164         7.2191995289
 23   6        20.1074777644       816.2157755043     36519.4816186695         6.5294630427         7.2190295283
 23   7        20.1053110531       816.2201457710     36524.9305085875         6.5298833164         7.2191995289
 23   8        20.1074777644       816.2157755043     36519.4816186694         6.5294630427         7.2190295283
 23   9        19.9195853981       809.4070310272     36414.5996846894         6.5402238977         7.2233822941
 23  10        19.9239865186       809.7798036229     36438.4666415109         6.5409327799         7.2236690369
 23  11        19.9195853981       809.4070310272     36414.5996846894         6.5402238977         7.2233822941
 23  12        19.9239865186       809.7798036229     36438.4666415109         6.5409327799         7.2236690369
 23  13        19.9710260647       811.5781144671     36506.9648634481         6.5401422019         7.2233492481
 23  14        19.9645841454       811.1326187219     36478.5399961065         6.5393960794         7.2230474416
 23  15        19.9710260647       811.5781144671     36506.9648634481         6.5401422019         7.2233492481
 23  16        19.9645841454       811.1326187219     36478.5399961068         6.5393960794         7.2230474416
 23  17        20.0559452626       814.6505864898     36488.3572451871         6.5322718726         7.2201656999
 23  18        20.0593465541       814.7199093096     36484.7998955983         6.5318331298         7.2199882285
 23  19        20.0559452626       814.6505864898     36488.3572451869         6.5322718726         7.2201656999
 23  20        20.0593465541       814.7199093096     36484.7998955986         6.5318331298         7.2199882285
 23  21        20.1538929632       797.2864603915     34998.0745563115         6.4568275883         7.1896484870
 23  22        20.1683457197       797.7548803877     35009.3474955112         6.4561865135         7.1893891722
 23  23        20.1538929632       797.2864603915     34998.0745563113         6.4568275883         7.1896484870
 24   1        20.0541210075       816.8236393712     36784.6796511261         6.5457148254         7.2256033744
 24   2        20.0574904638       817.0084645221     36793.9054767999         6.5458493519         7.2256577903
 24   3        20.0541210075       816.8236393712     36784.6796511262         6.5457148254         7.2256033744
 24   4        20.0574904638       817.0084645221     36793.9054768000         6.5458493519         7.2256577903
 24   5        20.1197865789       816.7047310164     36537.2367299018         6.5292548921         7.2189453313
 24   6        20.1219549602       816.7003509584     36531.7834924180         6.5288345376         7.2187752980
 24   7        20.1197865789       816.7047310164     36537.2367299016         6.5292548921         7.2189453313
 24   8        20.1219549602       816.7003509584     36531.7834924179         6.5288345376         7.2187752980
 24   9        19.9338982893       809.8864883846     36426.8959201441         6.5395979662         7.2231291048
 24  10        19.9383081165       810.2597315805     36450.7852419979         6.5403069706         7.2234158971
 24  11        19.9338982893       809.8864883846     36426.8959201441         6.5395979662         7.2231291048
 24  12        19.9383081165       810.2597315805     36450.7852419980         6.5403069706         7.2234158971
 24  13        19.9853816280       812.0591001078     36519.3013118238         6.5395162218         7.2230960392
 24  14        19.9789329382       811.6132302282     36490.8583472131         6.5387699636         7.2227941778
 24  15        19.9853816280       812.0591001078     36519.3013118238         6.5395162218         7.2230960392
 24  16        19.9789329382       811.6132302282     36490.8583472134         6.5387699636         7.2227941778
 24  17        20.0703232576       815.1317772010     36500.5545949547         6.5316439369         7.2199117000
 24  18        20.0737306224       815.2012798968     36496.9995951630         6.5312051007         7.2197341907
 24  19        20.0703232576       815.1317772010     36500.5545949544         6.5316439369         7.2199117000
 24  20        20.0737306224       815.2012798968     36496.9995951633         6.5312051007         7.2197341907
 24  21        20.1683457197       797.7548803877     35009.3474955114         6.4561865135         7.1893891722
 24  22        20.1828162791       798.2238563919     35020.6325008455         6.4555452986         7.1891298008
 24  23        20.1683457197       797.7548803877     35009.3474955112         6.4561865135         7.1893891722
 24  24        20.1828162791       798.2238563919     35020.6325008454         6.4555452986         7.1891298008
 25   1        19.7803986705       825.4482754379     37989.8669627348         6.6213252194         7.2561877787
 25   2        19.7837036788       825.6331299071     37999.3058440084         6.6214590184         7.2562419004
 25   3        19.7803986705       825.4482754379     37989.8669627349         6.6213252194         7.2561877787
 25   4        19.7837036788       825.6331299071     37999.3058440085         6.6214590184         7.2562419004
 25   5        19.8455494454       825.4116037735     37746.9756923874         6.6052034368         7.2496665177
 25   6        19.8476873928       825.4093849774     37741.6090943521         6.6047900197         7.2494992904
 25   7        19.8455494454       825.4116037735     37746.9756923873         6.6052034368         7.2496665177
 25   8        19.8476873928       825.4093849774     37741.6090943519         6.6047900197         7.2494992904
 25   9        19.6624257854       818.5126168946     37624.1414741580         6.6152503901         7.2537305103
 25  10        19.6667312756       818.8832815239     37648.3525131671         6.6159510309         7.2540139195
 25  11        19.6624257854       818.5126168946     37624.1414741580         6.6152503901         7.2537305103
 25  12        19.6667312756       818.8832815239     37648.3525131672         6.6159510309         7.2540139195
 25  13        19.7131623848       820.7045066849     37719.7234687748         6.6151781101         7.2537012730
 25  14        19.7068186230       820.2590626676     37690.8143835221         6.6144423739         7.2534036677
 25  15        19.7131623848       820.7045066849     37719.7234687748         6.6151781101         7.2537012730
 25  16        19.7068186230       820.2590626676     37690.8143835224         6.6144423739         7.2534036677
 25  17        19.7972553993       823.8319192355     37708.3385432565         6.6075457716         7.2506139921
 25  18        19.8005873731       823.9026281405     37704.9391956126         6.6071164160         7.2504403178
 25  19        19.7972553993       823.8319192355     37708.3385432562         6.6075457716         7.2506139921
 25  20        19.8005873731       823.9026281405     37704.9391956129         6.6071164160         7.2504403178
 25  21        19.8939079243       806.7866287429     36206.3660100705         6.5329453068         7.2204381041
 25  22        19.9081221669       807.2610829104     36218.3996901883         6.5323179798         7.2201843503
 25  23        19.8939079243       806.7866287429     36206.3660100702         6.5329453068         7.2204381041
 25  24        19.9081221669       807.2610829104     36218.3996901883         6.5323179798         7.2201843503
 25  25        19.6376412351       815.9241631432     37414.6106713574         6.6080903799         7.2508342862
 26   1        19.7744040414       825.0342093150     37961.5035674770         6.6205894052         7.2558901419
 26   2        19.7777064748       825.2189147312     37970.9330262926         6.6207232178         7.2559442691
 26   3        19.7744040414       825.0342093151     37961.5035674771         6.6205894052         7.2558901419
 26   4        19.7777064748       825.2189147312     37970.9330262927         6.6207232178         7.2559442691
 26   5        19.8395675891       824.9983610941     37718.7348504341         6.6044641246         7.2493674659
 26   6        19.8417048172       824.9961221378     37713.3693207636         6.6040506305         7.2492002075
 26   7        19.8395675891       824.9983610941     37718.7348504339         6.6044641246         7.2493674659
 26   8        19.8417048172       824.9961221378     37713.3693207635         6.6040506305         7.2492002075
 26   9        19.6565188111       818.1037904095     37596.1198130909         6.6145138944         7.2534325978
 26  10        19.6608192332       818.4741508740     37620.3097342036         6.6152146401         7.2537160494
 26  11        19.6565188111       818.1037904095     37596.1198130910         6.6145138944         7.2534325978
 26  12        19.6608192332       818.4741508740     37620.3097342036         6.6152146401         7.2537160494
 26  13        19.7072362808       820.2944394795     37691.6212828192         6.6144415397         7.2534033303
 26  14        19.7008958828       819.8492425624     37662.7318724872         6.6137056803         7.2531056752
 26  15        19.7072362808       820.2944394795     37691.6212828192         6.6144415397         7.2534033303
 26  16        19.7008958828       819.8492425624     37662.7318724875         6.6137056803         7.2531056752
 26  17        19.7913303013       823.4213086806     37680.2240949170         6.6068069500         7.2503151388
 26  18        19.7946588031       823.4918658601     37676.8192729075         6.6063774977         7.2501414253
 26  19        19.7913303013       823.4213086806     37680.2240949167         6.6068069500         7.2503151388
 26  20        19.7946588031       823.4918658601     37676.8192729078         6.6063774977         7.2501414253
[...]
            =  -1.359567212329E-04   9.228572557138E-05   2.427119740092E-04  Ry/bohr
  Fvdw (86) =   6.534941628142E-05   4.792428441511E-05  -1.233573312545E-04  Hartree/bohr
            =   1.306988325628E-04   9.584856883023E-05  -2.467146625091E-04  Ry/bohr
  Fvdw (87) =   6.797836061643E-05  -4.614286278569E-05  -1.213559870046E-04  Hartree/bohr
            =   1.359567212329E-04  -9.228572557137E-05  -2.427119740092E-04  Ry/bohr
  Fvdw (88) =  -6.534941628141E-05  -4.792428441511E-05   1.233573312546E-04  Hartree/bohr
            =  -1.306988325628E-04  -9.584856883023E-05   2.467146625091E-04  Ry/bohr
  Fvdw (89) =  -1.812508503678E-04   2.007068335422E-04  -6.714866081651E-05  Hartree/bohr
            =  -3.625017007357E-04   4.014136670844E-04  -1.342973216330E-04  Ry/bohr
  Fvdw (90) =   1.758557379707E-04   1.981956277403E-04   6.739783126551E-05  Hartree/bohr
            =   3.517114759414E-04   3.963912554807E-04   1.347956625310E-04  Ry/bohr
  Fvdw (91) =   1.812508503678E-04  -2.007068335422E-04   6.714866081652E-05  Hartree/bohr
            =   3.625017007357E-04  -4.014136670844E-04   1.342973216330E-04  Ry/bohr
  Fvdw (92) =  -1.758557379707E-04  -1.981956277403E-04  -6.739783126551E-05  Hartree/bohr
            =  -3.517114759414E-04  -3.963912554807E-04  -1.347956625310E-04  Ry/bohr
  sigma_vdw (Hy/bohr**3) =  -3.549729038117E-05  -2.098601275276E-08   9.727348017867E-07  
                            -2.098601275276E-08  -3.470283050335E-05   1.160181782924E-08  
                             9.727348017867E-07   1.160181782924E-08  -4.151410864017E-05  
  sigma_vdw (Ry/bohr**3) =  -7.099458076233E-05  -4.197202550551E-08   1.945469603573E-06  
                            -4.197202550551E-08  -6.940566100670E-05   2.320363565847E-08  
                             1.945469603573E-06   2.320363565847E-08  -8.302821728034E-05  
  sigma_vdw (GPa) =  -1.044366163807E+00  -6.174297079258E-04   2.861884111252E-02  
                     -6.174297079258E-04  -1.020992351159E+00   3.413372076968E-04  
                      2.861884111252E-02   3.413372076968E-04  -1.221387038809E+00  
 
 TIME (final):      757.6

!    total energy              =   -5756.15037055 Ry
     Harris-Foulkes estimate   =   -5756.15037060 Ry
     estimated scf accuracy    <       0.00000006 Ry

     total all-electron energy =   -114381.539470 Ry

     The total energy is the sum of the following terms:

     one-electron contribution =   -1736.69174247 Ry
     hartree contribution      =    1100.44584680 Ry
     xc contribution           =    -649.35977340 Ry
     ewald contribution        =   -1123.42755913 Ry
     Dispersion XDM Correction =      -0.65290849 Ry
     Uncorrected (XDM) energy  =   -5755.49746206 Ry
     one-center paw contrib.   =   -3346.46423387 Ry

     convergence has been achieved in  36 iterations

     Forces acting on atoms (Ry/au):

     atom    1 type  1   force =    -0.00019537   -0.00002298    0.00026088
     atom    2 type  1   force =     0.00011711   -0.00000293   -0.00022913
     atom    3 type  1   force =     0.00019537    0.00002298   -0.00026088
     atom    4 type  1   force =    -0.00011711    0.00000293    0.00022913
     atom    5 type  1   force =    -0.00012027    0.00053848    0.00000109
     atom    6 type  1   force =     0.00010920    0.00010084   -0.00001485
     atom    7 type  1   force =     0.00012027   -0.00053848   -0.00000109
     atom    8 type  1   force =    -0.00010920   -0.00010084    0.00001485
     atom    9 type  1   force =    -0.00019644   -0.00039726    0.00035547
     atom   10 type  1   force =     0.00038343   -0.00015332   -0.00042547
     atom   11 type  1   force =     0.00019644    0.00039726   -0.00035547
     atom   12 type  1   force =    -0.00038343    0.00015332    0.00042547
     atom   13 type  1   force =     0.00019536   -0.00006754    0.00012719
     atom   14 type  1   force =    -0.00007633   -0.00022915   -0.00018360
     atom   15 type  1   force =    -0.00019536    0.00006754   -0.00012719
     atom   16 type  1   force =     0.00007633    0.00022915    0.00018360
     atom   17 type  1   force =     0.00010018    0.00011906   -0.00004046
     atom   18 type  1   force =     0.00000760   -0.00023713    0.00000485
     atom   19 type  1   force =    -0.00010018   -0.00011906    0.00004046
     atom   20 type  1   force =    -0.00000760    0.00023713   -0.00000485
     atom   21 type  1   force =    -0.00003212    0.00046557    0.00021207
     atom   22 type  1   force =    -0.00000279    0.00044500   -0.00021352
     atom   23 type  1   force =     0.00003212   -0.00046557   -0.00021207
     atom   24 type  1   force =     0.00000279   -0.00044500    0.00021352
     atom   25 type  1   force =     0.00033243   -0.00015933   -0.00003672
     atom   26 type  1   force =    -0.00019992   -0.00014223   -0.00003326
     atom   27 type  1   force =    -0.00033243    0.00015933    0.00003672
     atom   28 type  1   force =     0.00019992    0.00014223    0.00003326
     atom   29 type  1   force =     0.00005947   -0.00014849    0.00000485
     atom   30 type  1   force =     0.00032972    0.00023543   -0.00024433
     atom   31 type  1   force =    -0.00005947    0.00014849   -0.00000485
     atom   32 type  1   force =    -0.00032972   -0.00023543    0.00024433
     atom   33 type  1   force =     0.00010525   -0.00003481   -0.00011481
     atom   34 type  1   force =    -0.00000757   -0.00017412    0.00019573
     atom   35 type  1   force =    -0.00010525    0.00003481    0.00011481
     atom   36 type  1   force =     0.00000757    0.00017412   -0.00019573
     atom   37 type  1   force =    -0.00005184    0.00041163    0.00004513
     atom   38 type  1   force =     0.00037441    0.00016037   -0.00023696
     atom   39 type  1   force =     0.00005184   -0.00041163   -0.00004513
     atom   40 type  1   force =    -0.00037441   -0.00016037    0.00023696
     atom   41 type  1   force =     0.00015458   -0.00016885   -0.00013983
     atom   42 type  1   force =     0.00006461   -0.00030136    0.00019806
     atom   43 type  1   force =    -0.00015458    0.00016885    0.00013983
     atom   44 type  1   force =    -0.00006461    0.00030136   -0.00019806
     atom   45 type  1   force =     0.00017838   -0.00002087    0.00005840
     atom   46 type  1   force =     0.00006903   -0.00027207    0.00010692
     atom   47 type  1   force =    -0.00017838    0.00002087   -0.00005840
     atom   48 type  1   force =    -0.00006903    0.00027207   -0.00010692
     atom   49 type  4   force =     0.00012873    0.00014064   -0.00009194
     atom   50 type  4   force =    -0.00002900   -0.00006327    0.00026456
     atom   51 type  4   force =    -0.00012873   -0.00014064    0.00009194
     atom   52 type  4   force =     0.00002900    0.00006327   -0.00026456
     atom   53 type  4   force =     0.00020426    0.00006219    0.00033915
     atom   54 type  4   force =     0.00026651   -0.00049927   -0.00027101
     atom   55 type  4   force =    -0.00020426   -0.00006219   -0.00033915
     atom   56 type  4   force =    -0.00026651    0.00049927    0.00027101
     atom   57 type  2   force =    -0.00002329   -0.00015235   -0.00015846
     atom   58 type  2   force =    -0.00002395    0.00037426   -0.00027085
     atom   59 type  2   force =     0.00002329    0.00015235    0.00015846
     atom   60 type  2   force =     0.00002395   -0.00037426    0.00027085
     atom   61 type  2   force =    -0.00073774    0.00014600    0.00068629
     atom   62 type  2   force =     0.00051277   -0.00021798    0.00006596
     atom   63 type  2   force =     0.00073774   -0.00014600   -0.00068629
     atom   64 type  2   force =    -0.00051277    0.00021798   -0.00006596
     atom   65 type  2   force =     0.00008273    0.00031369    0.00000279
     atom   66 type  2   force =    -0.00006164    0.00022545    0.00015159
     atom   67 type  2   force =    -0.00008273   -0.00031369   -0.00000279
     atom   68 type  2   force =     0.00006164   -0.00022545   -0.00015159
     atom   69 type  2   force =     0.00078452   -0.00010760    0.00027251
     atom   70 type  2   force =    -0.00007443   -0.00079471    0.00008483
     atom   71 type  2   force =    -0.00078452    0.00010760   -0.00027251
     atom   72 type  2   force =     0.00007443    0.00079471   -0.00008483
     atom   73 type  2   force =     0.00022434    0.00005995    0.00001046
     atom   74 type  2   force =    -0.00004324    0.00003720   -0.00021318
     atom   75 type  2   force =    -0.00022434   -0.00005995   -0.00001046
     atom   76 type  2   force =     0.00004324   -0.00003720    0.00021318
     atom   77 type  2   force =     0.00073438    0.00010137    0.00016331
     atom   78 type  2   force =    -0.00051056    0.00004973    0.00007731
     atom   79 type  2   force =    -0.00073438   -0.00010137   -0.00016331
     atom   80 type  2   force =     0.00051056   -0.00004973   -0.00007731
     atom   81 type  2   force =    -0.00029157   -0.00038012    0.00010518
     atom   82 type  2   force =     0.00030510   -0.00008271   -0.00050288
     atom   83 type  2   force =     0.00029157    0.00038012   -0.00010518
     atom   84 type  2   force =    -0.00030510    0.00008271    0.00050288
     atom   85 type  2   force =     0.00009572   -0.00050152    0.00000407
     atom   86 type  2   force =     0.00037108   -0.00050470    0.00022099
     atom   87 type  2   force =    -0.00009572    0.00050152   -0.00000407
     atom   88 type  2   force =    -0.00037108    0.00050470   -0.00022099
     atom   89 type  3   force =     0.00023885   -0.00016538   -0.00007665
     atom   90 type  3   force =    -0.00031733   -0.00005009   -0.00001540
     atom   91 type  3   force =    -0.00023885    0.00016538    0.00007665
     atom   92 type  3   force =     0.00031733    0.00005009    0.00001540

     Total force =     0.004345     Total SCF correction =     0.000653

     Total XDM Dispersion Force =     0.006562

     XDM Dispersion forces acting on atoms:
     atom    1 type  1   force =     0.00047332    0.00047010    0.00009898
     atom    2 type  1   force =    -0.00046256    0.00050056   -0.00009957
     atom    3 type  1   force =    -0.00047332   -0.00047010   -0.00009898
     atom    4 type  1   force =     0.00046256   -0.00050056    0.00009957
     atom    5 type  1   force =     0.00062381    0.00032752   -0.00022560
     atom    6 type  1   force =    -0.00061051    0.00035453    0.00022799
     atom    7 type  1   force =    -0.00062381   -0.00032752    0.00022560
     atom    8 type  1   force =     0.00061051   -0.00035453   -0.00022799
     atom    9 type  1   force =     0.00067526    0.00040054    0.00044439
     atom   10 type  1   force =    -0.00067567    0.00042769   -0.00044581
     atom   11 type  1   force =    -0.00067526   -0.00040054   -0.00044439
     atom   12 type  1   force =     0.00067567   -0.00042769    0.00044581
     atom   13 type  1   force =    -0.00009481   -0.00038187    0.00002391
     atom   14 type  1   force =     0.00007646   -0.00036626   -0.00002093
     atom   15 type  1   force =     0.00009481    0.00038187   -0.00002391
     atom   16 type  1   force =    -0.00007646    0.00036626    0.00002093
     atom   17 type  1   force =    -0.00006685   -0.00077439   -0.00021988
     atom   18 type  1   force =     0.00005613   -0.00076996    0.00022148
     atom   19 type  1   force =     0.00006685    0.00077439    0.00021988
     atom   20 type  1   force =    -0.00005613    0.00076996   -0.00022148
     atom   21 type  1   force =     0.00049098    0.00002034   -0.00018307
     atom   22 type  1   force =    -0.00048456    0.00003598    0.00018508
     atom   23 type  1   force =    -0.00049098   -0.00002034    0.00018307
     atom   24 type  1   force =     0.00048456   -0.00003598   -0.00018508
     atom   25 type  1   force =    -0.00010347   -0.00065096    0.00041082
     atom   26 type  1   force =     0.00008621   -0.00064348   -0.00041624
     atom   27 type  1   force =     0.00010347    0.00065096   -0.00041082
     atom   28 type  1   force =    -0.00008621    0.00064348    0.00041624
     atom   29 type  1   force =     0.00037362    0.00055737    0.00027629
     atom   30 type  1   force =    -0.00037196    0.00057688   -0.00027398
     atom   31 type  1   force =    -0.00037362   -0.00055737   -0.00027629
     atom   32 type  1   force =     0.00037196   -0.00057688    0.00027398
     atom   33 type  1   force =     0.00002938   -0.00050600   -0.00010973
     atom   34 type  1   force =    -0.00003318   -0.00050776    0.00010786
     atom   35 type  1   force =    -0.00002938    0.00050600    0.00010973
     atom   36 type  1   force =     0.00003318    0.00050776   -0.00010786
     atom   37 type  1   force =     0.00001262    0.00040519   -0.00010039
     atom   38 type  1   force =    -0.00001397    0.00041508    0.00010092
     atom   39 type  1   force =    -0.00001262   -0.00040519    0.00010039
     atom   40 type  1   force =     0.00001397   -0.00041508   -0.00010092
     atom   41 type  1   force =    -0.00026665   -0.00040963    0.00027132
     atom   42 type  1   force =     0.00025728   -0.00040650   -0.00027972
     atom   43 type  1   force =     0.00026665    0.00040963   -0.00027132
     atom   44 type  1   force =    -0.00025728    0.00040650    0.00027972
     atom   45 type  1   force =    -0.00016830   -0.00002082   -0.00002430
     atom   46 type  1   force =     0.00015470   -0.00002400    0.00002188
     atom   47 type  1   force =     0.00016830    0.00002082    0.00002430
     atom   48 type  1   force =    -0.00015470    0.00002400   -0.00002188
     atom   49 type  4   force =     0.00038468   -0.00034302   -0.00113268
     atom   50 type  4   force =    -0.00037160   -0.00034294    0.00114663
     atom   51 type  4   force =    -0.00038468    0.00034302    0.00113268
     atom   52 type  4   force =     0.00037160    0.00034294   -0.00114663
     atom   53 type  4   force =    -0.00104710    0.00145022   -0.00013847
     atom   54 type  4   force =     0.00099619    0.00145315    0.00013575
     atom   55 type  4   force =     0.00104710   -0.00145022    0.00013847
     atom   56 type  4   force =    -0.00099619   -0.00145315   -0.00013575
     atom   57 type  2   force =    -0.00014470    0.00026236    0.00012711
     atom   58 type  2   force =     0.00014778    0.00027639   -0.00012531
     atom   59 type  2   force =     0.00014470   -0.00026236   -0.00012711
     atom   60 type  2   force =    -0.00014778   -0.00027639    0.00012531
     atom   61 type  2   force =     0.00006055    0.00000596   -0.00027084
     atom   62 type  2   force =    -0.00006271    0.00000547    0.00027631
     atom   63 type  2   force =    -0.00006055   -0.00000596    0.00027084
     atom   64 type  2   force =     0.00006271   -0.00000547   -0.00027631
     atom   65 type  2   force =     0.00004445    0.00024104   -0.00000581
     atom   66 type  2   force =    -0.00005416    0.00024523    0.00000378
     atom   67 type  2   force =    -0.00004445   -0.00024104    0.00000581
     atom   68 type  2   force =     0.00005416   -0.00024523   -0.00000378
     atom   69 type  2   force =     0.00033667    0.00019189    0.00029347
     atom   70 type  2   force =    -0.00032920    0.00019868   -0.00029609
     atom   71 type  2   force =    -0.00033667   -0.00019189   -0.00029347
     atom   72 type  2   force =     0.00032920   -0.00019868    0.00029609
     atom   73 type  2   force =     0.00013224   -0.00022281   -0.00018735
     atom   74 type  2   force =    -0.00013274   -0.00022543    0.00018609
     atom   75 type  2   force =    -0.00013224    0.00022281    0.00018735
     atom   76 type  2   force =     0.00013274    0.00022543   -0.00018609
     atom   77 type  2   force =    -0.00006659   -0.00023879    0.00021654
     atom   78 type  2   force =     0.00006510   -0.00023658   -0.00021954
     atom   79 type  2   force =     0.00006659    0.00023879   -0.00021654
     atom   80 type  2   force =    -0.00006510    0.00023658    0.00021954
     atom   81 type  2   force =    -0.00006846    0.00026633    0.00020337
     atom   82 type  2   force =     0.00006263    0.00026606   -0.00020277
     atom   83 type  2   force =     0.00006846   -0.00026633   -0.00020337
     atom   84 type  2   force =    -0.00006263   -0.00026606    0.00020277
     atom   85 type  2   force =    -0.00013596    0.00009229    0.00024271
     atom   86 type  2   force =     0.00013070    0.00009585   -0.00024671
     atom   87 type  2   force =     0.00013596   -0.00009229   -0.00024271
     atom   88 type  2   force =    -0.00013070   -0.00009585    0.00024671
     atom   89 type  3   force =    -0.00036250    0.00040141   -0.00013430
     atom   90 type  3   force =     0.00035171    0.00039639    0.00013480
     atom   91 type  3   force =     0.00036250   -0.00040141    0.00013430
     atom   92 type  3   force =    -0.00035171   -0.00039639   -0.00013480
     SCF correction compared to forces is large: reduce conv_thr to get better values


     entering subroutine stress ...

          total   stress  (Ry/bohr**3)                   (kbar)     P=    0.09
   0.00000134   0.00000039   0.00000071          0.20      0.06      0.11
   0.00000039   0.00000028   0.00000049          0.06      0.04      0.07
   0.00000071   0.00000049   0.00000030          0.11      0.07      0.04


     Writing output data file fepxas.save
 
     init_run     :     82.90s CPU     84.37s WALL (       2 calls)
     electrons    :   4729.99s CPU   4806.48s WALL (       2 calls)
     forces       :     85.36s CPU     86.19s WALL (       2 calls)
     stress       :    229.37s CPU    231.06s WALL (       2 calls)

     Called by init_run:
     wfcinit      :     24.63s CPU     25.09s WALL (       2 calls)
     potinit      :     18.03s CPU     18.32s WALL (       2 calls)

     Called by electrons:
     c_bands      :   2027.86s CPU   2061.07s WALL (      74 calls)
     sum_band     :   1186.69s CPU   1202.31s WALL (      74 calls)
     v_of_rho     :     63.26s CPU     63.66s WALL (      76 calls)
     newd         :    629.73s CPU    634.77s WALL (      76 calls)
     mix_rho      :     38.07s CPU     40.54s WALL (      74 calls)

     Called by c_bands:
     init_us_2    :      7.25s CPU      7.32s WALL (     150 calls)
     cegterg      :   2010.61s CPU   2043.82s WALL (      74 calls)

     Called by *egterg:
     h_psi        :   1215.71s CPU   1227.80s WALL (     398 calls)
     s_psi        :    181.61s CPU    181.71s WALL (     398 calls)
     g_psi        :      5.18s CPU      5.17s WALL (     322 calls)
     cdiaghg      :    198.83s CPU    199.04s WALL (     396 calls)

     Called by h_psi:
     add_vuspsi   :    182.12s CPU    182.58s WALL (     398 calls)

     General routines
     calbec       :    252.62s CPU    256.08s WALL (     476 calls)
     fft          :     51.36s CPU     59.53s WALL (    2254 calls)
     ffts         :      3.25s CPU      3.30s WALL (     300 calls)
     fftw         :   1264.01s CPU   1280.33s WALL (  169568 calls)
     interpolate  :     11.07s CPU     11.19s WALL (     300 calls)
     davcio       :      0.00s CPU      7.05s WALL (      74 calls)
 
     Parallel routines
     fft_scatter  :    234.37s CPU    257.80s WALL (  172122 calls)
 
     PAW routines
     PAW_pot      :     35.56s CPU     40.48s WALL (      76 calls)
     PAW_ddot     :     23.09s CPU     25.32s WALL (    2762 calls)
     PAW_symme    :      0.01s CPU      0.03s WALL (     150 calls)
 
     PWSCF        :     1h25m CPU        1h26m WALL

 
   This run was terminated on:  13:56:45  25Oct2012            

=------------------------------------------------------------------------------=
   JOB DONE.
=------------------------------------------------------------------------------=
