
     Program PWSCF v.4.3.2      starts on 30Oct2012 at  6: 7:43 

     This program is part of the open-source Quantum ESPRESSO suite
     for quantum simulation of materials; please cite
         "P. Giannozzi et al., J. Phys.:Condens. Matter 21 395502 (2009);
          URL http://www.quantum-espresso.org", 
     in publications or presentations arising from this work. More details at
     http://www.quantum-espresso.org/wiki/index.php/Citing_Quantum-ESPRESSO

     Parallel version (MPI), running on    12 processors
     R & G space division:  proc/pool =   12

     Current dimensions of program PWSCF are:
     Max number of different atomic species (ntypx) = 10
     Max number of k-points (npk) =  40000
     Max angular momentum in pseudopotentials (lmaxx) =  3
     Waiting for input...
     Reading input from stdin
               file c.UPF: wavefunction(s)  2P renormalized
               file s.UPF: wavefunction(s)  3P renormalized
               file sb.UPF: wavefunction(s)  5S 5P renormalized
               file h.UPF: wavefunction(s)  1S renormalized

     Subspace diagonalization in iterative solution of the eigenvalue problem:
     a serial algorithm will be used

 
     Parallelization info
     --------------------
     sticks:   dense  smooth     PW     G-vecs:    dense   smooth      PW
     Min        3290    2192    576               136225    74176    9988
     Max        3291    2193    577               136226    74200    9989
     Sum       39485   26309   6913              1634703   890281  119861
 

     Title: 
     fepxas                                                                     


     bravais-lattice index     =            0
     lattice parameter (alat)  =       1.0000  a.u.
     unit-cell volume          =   14175.0920 (a.u.)^3
     number of atoms/cell      =           92
     number of atomic types    =            4
     number of electrons       =       288.00
     number of Kohn-Sham states=          144
     kinetic-energy cutoff     =      60.0000  Ry
     charge density cutoff     =     360.0000  Ry
     convergence threshold     =      1.0E-07
     mixing beta               =       0.7000
     number of iterations used =            8  plain     mixing
     Exchange-correlation      =  NOX  PW   PW86 PBC ( 0 417 4 0)
     EXX-fraction              =        0.00
     nstep                     =           50


     celldm(1)=   1.000000  celldm(2)=   0.000000  celldm(3)=   0.000000
     celldm(4)=   0.000000  celldm(5)=   0.000000  celldm(6)=   0.000000

     crystal axes: (cart. coord. in units of alat)
               a(1) = (  43.183782   0.001887   1.194689 )  
               a(2) = (   0.000840  31.891006   0.001193 )  
               a(3) = (   0.054545   0.000149  10.294391 )  

     reciprocal axes: (cart. coord. in units 2 pi/alat)
               b(1) = (  0.023160 -0.000001 -0.000123 )  
               b(2) = ( -0.000001  0.031357  0.000000 )  
               b(3) = ( -0.002688 -0.000004  0.097155 )  


     PseudoPot. # 1 for  C read from file:
     ./c.UPF
     MD5 check sum: 59d3a4af416b94ce846c69cefa103580
     Pseudo is Projector augmented-wave + core cor, Zval =  4.0
     Generated using "atomic" code by A. Dal Corso  (Quantum ESPRESSO distribution)
     Shape of augmentation charge: BESSEL
     Using radial grid of 1073 points,  4 beta functions with: 
                l(1) =   0
                l(2) =   0
                l(3) =   1
                l(4) =   1
     Q(r) pseudized with 0 coefficients 


     PseudoPot. # 2 for  S read from file:
     ./s.UPF
     MD5 check sum: f30e8e98a43cb1acb672e04b450f70db
     Pseudo is Projector augmented-wave + core cor, Zval =  6.0
     Generated using "atomic" code by A. Dal Corso  (Quantum ESPRESSO distribution)
     Shape of augmentation charge: PSQ
     Using radial grid of 1151 points,  4 beta functions with: 
                l(1) =   0
                l(2) =   0
                l(3) =   1
                l(4) =   1
     Q(r) pseudized with 0 coefficients 


     PseudoPot. # 3 for Sb read from file:
     ./sb.UPF
     MD5 check sum: eafba98ab4c7605221bb994336090a42
     Pseudo is Projector augmented-wave + core cor, Zval =  5.0
     Generated using "atomic" code by A. Dal Corso  (Quantum ESPRESSO distribution)
     Shape of augmentation charge: PSQ
     Using radial grid of 1243 points,  4 beta functions with: 
                l(1) =   0
                l(2) =   0
                l(3) =   1
                l(4) =   1
     Q(r) pseudized with 0 coefficients 


     PseudoPot. # 4 for  H read from file:
     ./h.UPF
     MD5 check sum: 465503140a8a8e79e3a70d3488897feb
     Pseudo is Projector augmented-wave, Zval =  1.0
     Generated using "atomic" code by A. Dal Corso  (Quantum ESPRESSO distribution)
     Shape of augmentation charge: PSQ
     Using radial grid of  929 points,  2 beta functions with: 
                l(1) =   0
                l(2) =   0
     Q(r) pseudized with 0 coefficients 


     atomic species   valence    mass     pseudopotential
        c              4.00    12.01070      C( 1.00)
        s              6.00    32.06500      S( 1.00)
        sb             5.00   121.76000     Sb( 1.00)
        h              1.00     1.00794      H( 1.00)

      2 Sym.Ops. (with inversion)


   Cartesian axes

     site n.     atom                  positions (alat units)
         1           c   tau(   1) = (  25.5382100  26.4853733   9.7701151  )
         2           c   tau(   2) = (  39.3199529  10.5428773   7.4659959  )
         3           c   tau(   3) = (  17.7009573   5.4076686   1.7201574  )
         4           c   tau(   4) = (   3.9192144  21.3501646   4.0242766  )
         5           c   tau(   5) = (  26.7982697  27.9682576   7.9805969  )
         6           c   tau(   6) = (  38.0600461  12.0263237   9.2549721  )
         7           c   tau(   7) = (  16.4408976   3.9247843   3.5096755  )
         8           c   tau(   8) = (   5.1791212  19.8667182   2.2353003  )
         9           c   tau(   9) = (  26.9232437  25.1400952  11.5634934  )
        10           c   tau(  10) = (  37.9350310   9.1968212   5.6731770  )
        11           c   tau(  11) = (  16.3159236   6.7529467  -0.0732209  )
        12           c   tau(  12) = (   5.3041363  22.6962207   5.8170955  )
        13           c   tau(  13) = (  34.3253689   4.6288846  10.1663384  )
        14           c   tau(  14) = (  30.5311709  20.5785571   7.0679835  )
        15           c   tau(  15) = (   8.9137984  27.2641573   1.3239340  )
        16           c   tau(  16) = (  12.7079963  11.3144848   4.4222890  )
        17           c   tau(  17) = (  33.0979960   3.2673058   8.2616989  )
        18           c   tau(  18) = (  31.7593490  19.2171516   8.9722627  )
        19           c   tau(  19) = (  10.1411713  28.6257361   3.2285736  )
        20           c   tau(  20) = (  11.4798182  12.6758903   2.5180097  )
        21           c   tau(  21) = (  29.4381454  28.1222657   7.9967833  )
        22           c   tau(  22) = (  35.4201491  12.1803975   9.2386336  )
        23           c   tau(  23) = (  13.8010219   3.7707762   3.4934892  )
        24           c   tau(  24) = (   7.8190182  19.7126444   2.2516389  )
        25           c   tau(  25) = (  35.9197601   3.3754159  11.8473868  )
        26           c   tau(  26) = (  28.9365737  19.3247662   5.3873743  )
        27           c   tau(  27) = (   7.3194072  28.5176260  -0.3571143  )
        28           c   tau(  28) = (  14.3025936  12.5682757   6.1028982  )
        29           c   tau(  29) = (  29.5604681  25.3083337  11.6002307  )
        30           c   tau(  30) = (  35.2977878   9.3652332   5.6361015  )
        31           c   tau(  31) = (  13.6786992   6.5847082  -0.1099582  )
        32           c   tau(  32) = (   7.9413795  22.5278087   5.8541710  )
        33           c   tau(  33) = (  33.3951240   0.6439382   8.0879361  )
        34           c   tau(  34) = (  31.4625868  16.5937792   9.1463183  )
        35           c   tau(  35) = (   9.8440433  31.2491037   3.4023364  )
        36           c   tau(  36) = (  11.7765805  15.2992627   2.3439542  )
        37           c   tau(  37) = (  30.8238429  26.8128529   9.8299244  )
        38           c   tau(  38) = (  34.0343181  10.8704519   7.4059624  )
        39           c   tau(  39) = (  12.4153244   5.0801890   1.6603481  )
        40           c   tau(  40) = (   9.2048492  21.0225900   4.0843101  )
        41           c   tau(  41) = (  36.2196480   0.7545033  11.6866031  )
        42           c   tau(  42) = (  28.6373020  16.7037854   5.5481734  )
        43           c   tau(  43) = (   7.0195193  31.1385386  -0.1963306  )
        44           c   tau(  44) = (  14.6018653  15.1892565   5.9420991  )
        45           c   tau(  45) = (  34.9130021  31.2689091   9.8458550  )
        46           c   tau(  46) = (  29.9453918  15.3274321   7.3899495  )
        47           c   tau(  47) = (   8.3261652   0.6241328   1.6444174  )
        48           c   tau(  48) = (  13.2937755  16.5656098   4.1003229  )
        49           sb  tau(  49) = (  31.3693141  30.4314062   5.1281126  )
        50           sb  tau(  50) = (  33.4347684  14.4900497   1.8127416  )
        51           sb  tau(  51) = (  11.8698532   1.4616357   6.3621598  )
        52           sb  tau(  52) = (   9.8043988  17.4029922   9.6775308  )
        53           sb  tau(  53) = (  35.0247976  27.0732971   9.8857417  )
        54           sb  tau(  54) = (  29.8332675  11.1317640   7.3509229  )
        55           sb  tau(  55) = (   8.2143697   4.8197449   1.6045307  )
        56           sb  tau(  56) = (  13.4058998  20.7612779   4.1393496  )
        57           h   tau(  57) = (  23.4867097  26.3690116   9.7503902  )
        58           h   tau(  58) = (  41.3715516  10.4266630   7.4854992  )
        59           h   tau(  59) = (  19.7524576   5.5240303   1.7398823  )
        60           h   tau(  60) = (   1.8676157  21.4663789   4.0047733  )
        61           h   tau(  61) = (  25.7107084  28.9874560   6.5596707  )
        62           h   tau(  62) = (  39.1479866  13.0457723  10.6753987  )
        63           h   tau(  63) = (  17.5284589   2.9055859   4.9306018  )
        64           h   tau(  64) = (   4.0911807  18.8472696   0.8148737  )
        65           h   tau(  65) = (  34.0504644   6.6589058  10.3105821  )
        66           h   tau(  66) = (  30.8051244  22.6087252   6.9246912  )
        67           h   tau(  67) = (   9.1887029  25.2341361   1.1796904  )
        68           h   tau(  68) = (  12.4340428   9.2843167   4.5655813  )
        69           h   tau(  69) = (  25.9016034  23.9588076   2.6452703  )
        70           h   tau(  70) = (  38.9021426   8.0151522   4.2976319  )
        71           h   tau(  71) = (  17.3375639   7.9342343   8.8450022  )
        72           h   tau(  72) = (   4.3370247  23.8778897   7.1926406  )
        73           h   tau(  73) = (  31.9076651   4.2711177   6.9129016  )
        74           h   tau(  74) = (  32.9492994  20.2213368  10.3209845  )
        75           h   tau(  75) = (  11.3315022  27.6219242   4.5773709  )
        76           h   tau(  76) = (  10.2898679  11.6717051   1.1692880  )
        77           h   tau(  77) = (  36.8568324   4.4171193   3.0196070  )
        78           h   tau(  78) = (  27.9432377  20.3667430   3.9219258  )
        79           h   tau(  79) = (   6.3823349  27.4759226   8.4706655  )
        80           h   tau(  80) = (  15.2959296  11.5262989   7.5683467  )
        81           h   tau(  81) = (  30.5691368  24.2740935   2.7292412  )
        82           h   tau(  82) = (  34.2353018   8.3306778   4.2124530  )
        83           h   tau(  83) = (  12.6700305   7.6189484   8.7610313  )
        84           h   tau(  84) = (   9.0038655  23.5623641   7.2778194  )
        85           h   tau(  85) = (  37.3637943  31.6810796   2.7573888  )
        86           h   tau(  86) = (  27.4389695  15.7388997   4.1850511  )
        87           h   tau(  87) = (   5.8753730   0.2119623   8.7328836  )
        88           h   tau(  88) = (  15.8001977  16.1541422   7.3052214  )
        89           s   tau(  89) = (  34.8215104  27.1985174   4.8236223  )
        90           s   tau(  90) = (  29.9823027  11.2574889   2.1170862  )
        91           s   tau(  91) = (   8.4176569   4.6945245   6.6666502  )
        92           s   tau(  92) = (  13.2568646  20.6355530   9.3731863  )

     number of k points=     1
                       cart. coord. in units 2pi/alat
        k(    1) = (  -0.0122514  -0.0156790   0.0243502), wk =   2.0000000

     Dense  grid:  1634703 G-vectors     FFT dimensions: ( 270, 200,  64)

     Smooth grid:   890281 G-vectors     FFT dimensions: ( 216, 160,  54)

     Largest allocated arrays     est. size (Mb)     dimensions
        Kohn-Sham Wavefunctions        20.32 Mb     (   9249,  144)
        NL pseudopotentials            76.77 Mb     (   9249,  544)
        Each V/rho on FFT grid          4.94 Mb     ( 324000)
        Each G-vector array             1.04 Mb     ( 136226)
        G-vector shells                 1.04 Mb     ( 136226)
     Largest temporary arrays     est. size (Mb)     dimensions
        Auxiliary wavefunctions        81.29 Mb     (   9249,  576)
        Each subspace H/S matrix        5.06 Mb     ( 576, 576)
        Each <psi_i|beta_j> matrix      1.20 Mb     (    544,  144)
        Arrays for rho mixing          39.55 Mb     ( 324000,   8)

     Check: negative/imaginary core charge=   -0.000002    0.000000

     Initial potential from superposition of free atoms

     starting charge  287.99274, renormalised to  288.00000
     Starting wfc are  272 atomic wfcs
     Checking if some PAW data can be deallocated... 

     total cpu time spent up to now is       55.8 secs

     per-process dynamical memory:   248.9 Mb

     Self-consistent Calculation

     iteration #  1     ecut=    60.00 Ry     beta=0.70
     Davidson diagonalization with overlap
     ethr =  1.00E-02,  avg # of iterations =  9.0

     total cpu time spent up to now is      111.4 secs

     total energy              =   -3981.44027270 Ry
     Harris-Foulkes estimate   =   -3989.10178333 Ry
     estimated scf accuracy    <      30.99733122 Ry

     iteration #  2     ecut=    60.00 Ry     beta=0.70
     Davidson diagonalization with overlap
     ethr =  1.00E-02,  avg # of iterations =  1.0

     total cpu time spent up to now is      154.7 secs

     total energy              =   -3981.45713569 Ry
     Harris-Foulkes estimate   =   -3981.93878726 Ry
     estimated scf accuracy    <       2.43195936 Ry

     iteration #  3     ecut=    60.00 Ry     beta=0.70
     Davidson diagonalization with overlap
     ethr =  8.44E-04,  avg # of iterations =  5.0

     negative rho (up, down):  0.428E-07 0.000E+00

     total cpu time spent up to now is      224.8 secs

     total energy              =   -3992.28412648 Ry
     Harris-Foulkes estimate   =   -3991.38186174 Ry
     estimated scf accuracy    <      25.86903360 Ry

     iteration #  4     ecut=    60.00 Ry     beta=0.70
     Davidson diagonalization with overlap
     ethr =  8.44E-04,  avg # of iterations =  1.0

     negative rho (up, down):  0.442E-04 0.000E+00

     total cpu time spent up to now is      268.1 secs

     total energy              =   -3987.13872062 Ry
     Harris-Foulkes estimate   =   -3992.29644460 Ry
     estimated scf accuracy    <      27.42560926 Ry

     iteration #  5     ecut=    60.00 Ry     beta=0.70
     Davidson diagonalization with overlap
     ethr =  8.44E-04,  avg # of iterations =  1.0

     negative rho (up, down):  0.844E-04 0.000E+00

     total cpu time spent up to now is      311.4 secs

     total energy              =   -3973.57882150 Ry
     Harris-Foulkes estimate   =   -3987.17514623 Ry
     estimated scf accuracy    <      19.63929850 Ry

     iteration #  6     ecut=    60.00 Ry     beta=0.70
     Davidson diagonalization with overlap
     ethr =  8.44E-04,  avg # of iterations = 22.0

     negative rho (up, down):  0.964E-04 0.000E+00

     total cpu time spent up to now is      416.9 secs

     total energy              =   -4002.70349776 Ry
     Harris-Foulkes estimate   =   -4004.86189209 Ry
     estimated scf accuracy    <     158.31163854 Ry

     iteration #  7     ecut=    60.00 Ry     beta=0.70
     Davidson diagonalization with overlap
     ethr =  8.44E-04,  avg # of iterations =  1.0

     negative rho (up, down):  0.666E-04 0.000E+00

     total cpu time spent up to now is      460.3 secs

     total energy              =   -4000.30923960 Ry
     Harris-Foulkes estimate   =   -4002.70814601 Ry
     estimated scf accuracy    <     155.09250311 Ry

     iteration #  8     ecut=    60.00 Ry     beta=0.70
     Davidson diagonalization with overlap
     ethr =  8.44E-04,  avg # of iterations =  1.0

     negative rho (up, down):  0.411E-05 0.000E+00

     total cpu time spent up to now is      503.8 secs

     total energy              =   -3997.07072460 Ry
     Harris-Foulkes estimate   =   -4000.31893398 Ry
     estimated scf accuracy    <     151.03916567 Ry

     iteration #  9     ecut=    60.00 Ry     beta=0.70
     Davidson diagonalization with overlap
     ethr =  8.44E-04,  avg # of iterations =  3.0

     negative rho (up, down):  0.174E-05 0.000E+00

     total cpu time spent up to now is      548.7 secs

     total energy              =   -3995.42162413 Ry
     Harris-Foulkes estimate   =   -3997.11186875 Ry
     estimated scf accuracy    <     144.86873630 Ry

     iteration # 10     ecut=    60.00 Ry     beta=0.70
     Davidson diagonalization with overlap
     ethr =  8.44E-04,  avg # of iterations =  1.0

     negative rho (up, down):  0.584E-06 0.000E+00

     total cpu time spent up to now is      592.3 secs

     total energy              =   -4003.85739082 Ry
     Harris-Foulkes estimate   =   -3995.43858553 Ry
     estimated scf accuracy    <     141.95348865 Ry

     iteration # 11     ecut=    60.00 Ry     beta=0.70
     Davidson diagonalization with overlap
     ethr =  8.44E-04,  avg # of iterations =  1.0

     total cpu time spent up to now is      636.0 secs

     total energy              =   -3968.10971253 Ry
     Harris-Foulkes estimate   =   -4003.89233729 Ry
     estimated scf accuracy    <     154.17285280 Ry

     iteration # 12     ecut=    60.00 Ry     beta=0.70
     Davidson diagonalization with overlap
     ethr =  8.44E-04,  avg # of iterations =  8.0

     total cpu time spent up to now is      718.9 secs

     total energy              =   -3989.47101297 Ry
     Harris-Foulkes estimate   =   -3989.31014326 Ry
     estimated scf accuracy    <      14.33595982 Ry

     iteration # 13     ecut=    60.00 Ry     beta=0.70
     Davidson diagonalization with overlap
     ethr =  8.44E-04,  avg # of iterations =  1.0

     total cpu time spent up to now is      762.5 secs

     total energy              =   -3989.60494953 Ry
     Harris-Foulkes estimate   =   -3989.48301514 Ry
     estimated scf accuracy    <      14.67088982 Ry

     iteration # 14     ecut=    60.00 Ry     beta=0.70
     Davidson diagonalization with overlap
     ethr =  8.44E-04,  avg # of iterations =  1.0

     negative rho (up, down):  0.699E+00 0.000E+00

     total cpu time spent up to now is      806.1 secs

     total energy              =   -4003.65088440 Ry
     Harris-Foulkes estimate   =   -3989.61326772 Ry
     estimated scf accuracy    <      14.89199599 Ry

     iteration # 15     ecut=    60.00 Ry     beta=0.70
     Davidson diagonalization with overlap
     ethr =  8.44E-04,  avg # of iterations = 18.0

     negative rho (up, down):  0.322E+00 0.000E+00

     total cpu time spent up to now is      937.6 secs

     total energy              =   -4115.51326517 Ry
     Harris-Foulkes estimate   =   -4140.01291644 Ry
     estimated scf accuracy    <    1514.20118841 Ry

     iteration # 16     ecut=    60.00 Ry     beta=0.70
     Davidson diagonalization with overlap
     ethr =  8.44E-04,  avg # of iterations = 16.0

     negative rho (up, down):  0.485E+00 0.000E+00

     total cpu time spent up to now is      990.6 secs

     total energy              =   -4121.84452752 Ry
     Harris-Foulkes estimate   =   -4116.04865796 Ry
     estimated scf accuracy    <    1414.66104905 Ry

     iteration # 17     ecut=    60.00 Ry     beta=0.70
     Davidson diagonalization with overlap
     ethr =  8.44E-04,  avg # of iterations =  2.0

     negative rho (up, down):  0.644E-02 0.000E+00

     total cpu time spent up to now is     1034.5 secs

     total energy              =   -4110.63687551 Ry
     Harris-Foulkes estimate   =   -4121.90164139 Ry
     estimated scf accuracy    <    1421.72393478 Ry

     iteration # 18     ecut=    60.00 Ry     beta=0.70
     Davidson diagonalization with overlap
     ethr =  8.44E-04,  avg # of iterations = 10.0

     negative rho (up, down):  0.416E-01 0.000E+00

     total cpu time spent up to now is     1102.8 secs

     total energy              =   -4088.12968044 Ry
     Harris-Foulkes estimate   =   -4115.95651463 Ry
     estimated scf accuracy    <    1342.55784989 Ry

     iteration # 19     ecut=    60.00 Ry     beta=0.70
     Davidson diagonalization with overlap
     ethr =  8.44E-04,  avg # of iterations =  9.0

     negative rho (up, down):  0.154E+00 0.000E+00

     total cpu time spent up to now is     1166.4 secs

     total energy              =   -4155.44727377 Ry
     Harris-Foulkes estimate   =   -4090.45058207 Ry
     estimated scf accuracy    <    1111.72037540 Ry

     iteration # 20     ecut=    60.00 Ry     beta=0.70
     Davidson diagonalization with overlap
     ethr =  8.44E-04,  avg # of iterations = 10.0

     negative rho (up, down):  0.486E+00 0.000E+00

     total cpu time spent up to now is     1239.0 secs

     total energy              =   -3957.88929731 Ry
     Harris-Foulkes estimate   =   -4165.02077528 Ry
     estimated scf accuracy    <    1759.26187067 Ry

     iteration # 21     ecut=    60.00 Ry     beta=0.70
     Davidson diagonalization with overlap
     ethr =  8.44E-04,  avg # of iterations = 19.0

     negative rho (up, down):  0.213E+00 0.000E+00

     total cpu time spent up to now is     1351.4 secs

     total energy              =   -3956.77343359 Ry
     Harris-Foulkes estimate   =   -4015.57496364 Ry
     estimated scf accuracy    <     358.65564838 Ry

     iteration # 22     ecut=    60.00 Ry     beta=0.70
     Davidson diagonalization with overlap
     ethr =  8.44E-04,  avg # of iterations = 12.0

     negative rho (up, down):  0.137E+00 0.000E+00

     total cpu time spent up to now is     1443.9 secs

     total energy              =   -3984.89955836 Ry
     Harris-Foulkes estimate   =   -3987.00044036 Ry
     estimated scf accuracy    <       5.66349188 Ry

     iteration # 23     ecut=    60.00 Ry     beta=0.70
     Davidson diagonalization with overlap
     ethr =  8.44E-04,  avg # of iterations =  8.0

     negative rho (up, down):  0.105E+00 0.000E+00

     total cpu time spent up to now is     1497.6 secs

     total energy              =   -3985.56723312 Ry
     Harris-Foulkes estimate   =   -3985.74595031 Ry
     estimated scf accuracy    <       0.64711841 Ry

     iteration # 24     ecut=    60.00 Ry     beta=0.70
     Davidson diagonalization with overlap
     ethr =  2.25E-04,  avg # of iterations =  6.0

     negative rho (up, down):  0.292E-01 0.000E+00

     total cpu time spent up to now is     1547.7 secs

     total energy              =   -3985.66686549 Ry
     Harris-Foulkes estimate   =   -3985.71417329 Ry
     estimated scf accuracy    <       0.27510894 Ry

     iteration # 25     ecut=    60.00 Ry     beta=0.70
     Davidson diagonalization with overlap
     ethr =  9.55E-05,  avg # of iterations =  3.0

     negative rho (up, down):  0.583E-02 0.000E+00

     total cpu time spent up to now is     1592.3 secs

     total energy              =   -3985.64978520 Ry
     Harris-Foulkes estimate   =   -3985.68008595 Ry
     estimated scf accuracy    <       0.17597110 Ry

     iteration # 26     ecut=    60.00 Ry     beta=0.70
     Davidson diagonalization with overlap
     ethr =  6.11E-05,  avg # of iterations =  7.0

     negative rho (up, down):  0.696E-02 0.000E+00

     total cpu time spent up to now is     1651.0 secs

     total energy              =   -3985.73458441 Ry
     Harris-Foulkes estimate   =   -3985.74314475 Ry
     estimated scf accuracy    <       0.20002063 Ry

     iteration # 27     ecut=    60.00 Ry     beta=0.70
     Davidson diagonalization with overlap
     ethr =  6.11E-05,  avg # of iterations =  1.0

     negative rho (up, down):  0.101E-02 0.000E+00

     total cpu time spent up to now is     1694.7 secs

     total energy              =   -3985.72373127 Ry
     Harris-Foulkes estimate   =   -3985.73641787 Ry
     estimated scf accuracy    <       0.18078063 Ry

     iteration # 28     ecut=    60.00 Ry     beta=0.70
     Davidson diagonalization with overlap
     ethr =  6.11E-05,  avg # of iterations =  1.0

     total cpu time spent up to now is     1738.4 secs

     total energy              =   -3985.69009666 Ry
     Harris-Foulkes estimate   =   -3985.72537463 Ry
     estimated scf accuracy    <       0.14313069 Ry

     iteration # 29     ecut=    60.00 Ry     beta=0.70
     Davidson diagonalization with overlap
     ethr =  4.97E-05,  avg # of iterations =  6.0

     total cpu time spent up to now is     1791.8 secs

     total energy              =   -3985.67229683 Ry
     Harris-Foulkes estimate   =   -3985.74808522 Ry
     estimated scf accuracy    <       0.19265512 Ry

     iteration # 30     ecut=    60.00 Ry     beta=0.70
     Davidson diagonalization with overlap
     ethr =  4.97E-05,  avg # of iterations =  7.0

     total cpu time spent up to now is     1847.0 secs

     total energy              =   -3985.70311768 Ry
     Harris-Foulkes estimate   =   -3985.73002047 Ry
     estimated scf accuracy    <       0.07121028 Ry

     iteration # 31     ecut=    60.00 Ry     beta=0.70
     Davidson diagonalization with overlap
     ethr =  2.47E-05,  avg # of iterations =  6.0

     total cpu time spent up to now is     1894.5 secs

     total energy              =   -3985.70508432 Ry
     Harris-Foulkes estimate   =   -3985.71074085 Ry
     estimated scf accuracy    <       0.01907686 Ry

     iteration # 32     ecut=    60.00 Ry     beta=0.70
     Davidson diagonalization with overlap
     ethr =  6.62E-06,  avg # of iterations =  6.0

     total cpu time spent up to now is     1958.3 secs

     total energy              =   -3985.71616921 Ry
     Harris-Foulkes estimate   =   -3985.72556855 Ry
     estimated scf accuracy    <       0.04613568 Ry

     iteration # 33     ecut=    60.00 Ry     beta=0.70
     Davidson diagonalization with overlap
     ethr =  6.62E-06,  avg # of iterations =  2.0

     total cpu time spent up to now is     2002.3 secs

     total energy              =   -3985.70352279 Ry
     Harris-Foulkes estimate   =   -3985.71649700 Ry
     estimated scf accuracy    <       0.03059956 Ry

     iteration # 34     ecut=    60.00 Ry     beta=0.70
     Davidson diagonalization with overlap
     ethr =  6.62E-06,  avg # of iterations =  6.0

     total cpu time spent up to now is     2062.9 secs

     total energy              =   -3985.71925688 Ry
     Harris-Foulkes estimate   =   -3985.72341984 Ry
     estimated scf accuracy    <       0.03484417 Ry

     iteration # 35     ecut=    60.00 Ry     beta=0.70
     Davidson diagonalization with overlap
     ethr =  6.62E-06,  avg # of iterations =  1.0

     total cpu time spent up to now is     2106.6 secs

     total energy              =   -3985.71085740 Ry
     Harris-Foulkes estimate   =   -3985.71937851 Ry
     estimated scf accuracy    <       0.02820838 Ry

     iteration # 36     ecut=    60.00 Ry     beta=0.70
     Davidson diagonalization with overlap
     ethr =  6.62E-06,  avg # of iterations =  1.0

     total cpu time spent up to now is     2150.2 secs

     total energy              =   -3985.70697610 Ry
     Harris-Foulkes estimate   =   -3985.71124865 Ry
     estimated scf accuracy    <       0.01463336 Ry

     iteration # 37     ecut=    60.00 Ry     beta=0.70
     Davidson diagonalization with overlap
     ethr =  5.08E-06,  avg # of iterations =  6.0

     total cpu time spent up to now is     2210.3 secs

     total energy              =   -3985.71998180 Ry
     Harris-Foulkes estimate   =   -3985.72196579 Ry
     estimated scf accuracy    <       0.02678524 Ry

     iteration # 38     ecut=    60.00 Ry     beta=0.70
     Davidson diagonalization with overlap
     ethr =  5.08E-06,  avg # of iterations =  1.0

     total cpu time spent up to now is     2254.0 secs

     total energy              =   -3985.71740518 Ry
     Harris-Foulkes estimate   =   -3985.72002347 Ry
     estimated scf accuracy    <       0.02351977 Ry

     iteration # 39     ecut=    60.00 Ry     beta=0.70
     Davidson diagonalization with overlap
     ethr =  5.08E-06,  avg # of iterations =  1.0

     total cpu time spent up to now is     2297.5 secs

     total energy              =   -3985.71397744 Ry
     Harris-Foulkes estimate   =   -3985.71748405 Ry
     estimated scf accuracy    <       0.01876880 Ry

     iteration # 40     ecut=    60.00 Ry     beta=0.70
     Davidson diagonalization with overlap
     ethr =  5.08E-06,  avg # of iterations = 11.0

     total cpu time spent up to now is     2348.2 secs

     total energy              =   -3985.71655793 Ry
     Harris-Foulkes estimate   =   -3985.71665737 Ry
     estimated scf accuracy    <       0.00093862 Ry

     iteration # 41     ecut=    60.00 Ry     beta=0.70
     Davidson diagonalization with overlap
     ethr =  3.26E-07,  avg # of iterations =  6.0

     total cpu time spent up to now is     2410.9 secs

     total energy              =   -3985.71743577 Ry
     Harris-Foulkes estimate   =   -3985.71740871 Ry
     estimated scf accuracy    <       0.00020403 Ry

     iteration # 42     ecut=    60.00 Ry     beta=0.70
     Davidson diagonalization with overlap
     ethr =  7.08E-08,  avg # of iterations = 10.0

     total cpu time spent up to now is     2460.6 secs

     total energy              =   -3985.71818796 Ry
     Harris-Foulkes estimate   =   -3985.71746696 Ry
     estimated scf accuracy    <       0.00041316 Ry

     iteration # 43     ecut=    60.00 Ry     beta=0.70
     Davidson diagonalization with overlap
     ethr =  7.08E-08,  avg # of iterations =  5.0

     total cpu time spent up to now is     2529.8 secs

     total energy              =   -3985.71746614 Ry
     Harris-Foulkes estimate   =   -3985.71941579 Ry
     estimated scf accuracy    <       0.01141736 Ry

     iteration # 44     ecut=    60.00 Ry     beta=0.70
     Davidson diagonalization with overlap
     ethr =  7.08E-08,  avg # of iterations =  5.0

     total cpu time spent up to now is     2592.8 secs

     total energy              =   -3985.71772085 Ry
     Harris-Foulkes estimate   =   -3985.71784040 Ry
     estimated scf accuracy    <       0.00332242 Ry

     iteration # 45     ecut=    60.00 Ry     beta=0.70
     Davidson diagonalization with overlap
     ethr =  7.08E-08,  avg # of iterations =  1.0

     total cpu time spent up to now is     2636.4 secs

     total energy              =   -3985.71648480 Ry
     Harris-Foulkes estimate   =   -3985.71772320 Ry
     estimated scf accuracy    <       0.00310886 Ry

     iteration # 46     ecut=    60.00 Ry     beta=0.70
     Davidson diagonalization with overlap
     ethr =  7.08E-08,  avg # of iterations =  7.0

     total cpu time spent up to now is     2705.3 secs

     total energy              =   -3985.71741966 Ry
     Harris-Foulkes estimate   =   -3985.71755764 Ry
     estimated scf accuracy    <       0.00090699 Ry

     iteration # 47     ecut=    60.00 Ry     beta=0.70
     Davidson diagonalization with overlap
     ethr =  7.08E-08,  avg # of iterations =  2.0

     total cpu time spent up to now is     2749.6 secs

     total energy              =   -3985.71724285 Ry
     Harris-Foulkes estimate   =   -3985.71742279 Ry
     estimated scf accuracy    <       0.00068561 Ry

     iteration # 48     ecut=    60.00 Ry     beta=0.70
     Davidson diagonalization with overlap
     ethr =  7.08E-08,  avg # of iterations =  7.0

     total cpu time spent up to now is     2806.6 secs

     total energy              =   -3985.71747317 Ry
     Harris-Foulkes estimate   =   -3985.71737276 Ry
     estimated scf accuracy    <       0.00002311 Ry

     iteration # 49     ecut=    60.00 Ry     beta=0.70
     Davidson diagonalization with overlap
     ethr =  8.03E-09,  avg # of iterations =  5.0

     total cpu time spent up to now is     2878.1 secs

     total energy              =   -3985.71714187 Ry
     Harris-Foulkes estimate   =   -3985.71780601 Ry
     estimated scf accuracy    <       0.00240091 Ry

     iteration # 50     ecut=    60.00 Ry     beta=0.70
     Davidson diagonalization with overlap
     ethr =  8.03E-09,  avg # of iterations =  8.0

     total cpu time spent up to now is     2952.9 secs

     total energy              =   -3985.71738230 Ry
     Harris-Foulkes estimate   =   -3985.71738149 Ry
     estimated scf accuracy    <       0.00006085 Ry

     iteration # 51     ecut=    60.00 Ry     beta=0.70
     Davidson diagonalization with overlap
     ethr =  8.03E-09,  avg # of iterations =  1.0

     total cpu time spent up to now is     2996.6 secs

     total energy              =   -3985.71736353 Ry
     Harris-Foulkes estimate   =   -3985.71738246 Ry
     estimated scf accuracy    <       0.00006130 Ry

     iteration # 52     ecut=    60.00 Ry     beta=0.70
     Davidson diagonalization with overlap
     ethr =  8.03E-09,  avg # of iterations =  8.0

     total cpu time spent up to now is     3051.9 secs

     total energy              =   -3985.71737551 Ry
     Harris-Foulkes estimate   =   -3985.71737637 Ry
     estimated scf accuracy    <       0.00000832 Ry

     iteration # 53     ecut=    60.00 Ry     beta=0.70
     Davidson diagonalization with overlap
     ethr =  2.89E-09,  avg # of iterations =  3.0

     total cpu time spent up to now is     3096.2 secs

     total energy              =   -3985.71737467 Ry
     Harris-Foulkes estimate   =   -3985.71737576 Ry
     estimated scf accuracy    <       0.00000690 Ry

     iteration # 54     ecut=    60.00 Ry     beta=0.70
     Davidson diagonalization with overlap
     ethr =  2.40E-09,  avg # of iterations =  1.0

     total cpu time spent up to now is     3139.8 secs

     total energy              =   -3985.71737155 Ry
     Harris-Foulkes estimate   =   -3985.71737482 Ry
     estimated scf accuracy    <       0.00000516 Ry

     iteration # 55     ecut=    60.00 Ry     beta=0.70
     Davidson diagonalization with overlap
     ethr =  1.79E-09,  avg # of iterations =  5.0

     total cpu time spent up to now is     3205.2 secs

     total energy              =   -3985.71738250 Ry
     Harris-Foulkes estimate   =   -3985.71738464 Ry
     estimated scf accuracy    <       0.00004621 Ry

     iteration # 56     ecut=    60.00 Ry     beta=0.70
     Davidson diagonalization with overlap
     ethr =  1.79E-09,  avg # of iterations =  1.0

     total cpu time spent up to now is     3248.7 secs

     total energy              =   -3985.71737450 Ry
     Harris-Foulkes estimate   =   -3985.71738253 Ry
     estimated scf accuracy    <       0.00004306 Ry

     iteration # 57     ecut=    60.00 Ry     beta=0.70
     Davidson diagonalization with overlap
     ethr =  1.79E-09,  avg # of iterations =  8.0

     total cpu time spent up to now is     3302.3 secs

     total energy              =   -3985.71737205 Ry
     Harris-Foulkes estimate   =   -3985.71737674 Ry
     estimated scf accuracy    <       0.00000869 Ry

     iteration # 58     ecut=    60.00 Ry     beta=0.70
     Davidson diagonalization with overlap
     ethr =  1.79E-09,  avg # of iterations =  6.0

     total cpu time spent up to now is     3365.2 secs

     total energy              =   -3985.71737685 Ry
     Harris-Foulkes estimate   =   -3985.71737816 Ry
     estimated scf accuracy    <       0.00001355 Ry

     iteration # 59     ecut=    60.00 Ry     beta=0.70
     Davidson diagonalization with overlap
     ethr =  1.79E-09,  avg # of iterations =  1.0

     total cpu time spent up to now is     3408.8 secs

     total energy              =   -3985.71737518 Ry
     Harris-Foulkes estimate   =   -3985.71737689 Ry
     estimated scf accuracy    <       0.00001153 Ry

     iteration # 60     ecut=    60.00 Ry     beta=0.70
     Davidson diagonalization with overlap
     ethr =  1.79E-09,  avg # of iterations =  5.0

     total cpu time spent up to now is     3454.4 secs

     total energy              =   -3985.71737501 Ry
     Harris-Foulkes estimate   =   -3985.71737548 Ry
     estimated scf accuracy    <       0.00000669 Ry

     iteration # 61     ecut=    60.00 Ry     beta=0.70
     Davidson diagonalization with overlap
     ethr =  1.79E-09,  avg # of iterations =  1.0

     total cpu time spent up to now is     3498.0 secs

     total energy              =   -3985.71737352 Ry
     Harris-Foulkes estimate   =   -3985.71737510 Ry
     estimated scf accuracy    <       0.00000570 Ry

     iteration # 62     ecut=    60.00 Ry     beta=0.70
     Davidson diagonalization with overlap
     ethr =  1.79E-09,  avg # of iterations =  7.0

     total cpu time spent up to now is     3550.4 secs

     total energy              =   -3985.71737567 Ry
     Harris-Foulkes estimate   =   -3985.71737561 Ry
     estimated scf accuracy    <       0.00000085 Ry

     iteration # 63     ecut=    60.00 Ry     beta=0.70
     Davidson diagonalization with overlap
     ethr =  2.97E-10,  avg # of iterations =  6.0

     total cpu time spent up to now is     3605.8 secs

     total energy              =   -3985.71737576 Ry
     Harris-Foulkes estimate   =   -3985.71737602 Ry
     estimated scf accuracy    <       0.00000197 Ry

     iteration # 64     ecut=    60.00 Ry     beta=0.70
     Davidson diagonalization with overlap
     ethr =  2.97E-10,  avg # of iterations =  1.0

     total cpu time spent up to now is     3649.3 secs

     total energy              =   -3985.71737582 Ry
     Harris-Foulkes estimate   =   -3985.71737576 Ry
     estimated scf accuracy    <       0.00000154 Ry

     iteration # 65     ecut=    60.00 Ry     beta=0.70
     Davidson diagonalization with overlap
     ethr =  2.97E-10,  avg # of iterations =  1.0

     total cpu time spent up to now is     3692.9 secs

     total energy              =   -3985.71737537 Ry
     Harris-Foulkes estimate   =   -3985.71737582 Ry
     estimated scf accuracy    <       0.00000162 Ry

     iteration # 66     ecut=    60.00 Ry     beta=0.70
     Davidson diagonalization with overlap
     ethr =  2.97E-10,  avg # of iterations = 10.0

     total cpu time spent up to now is     3746.7 secs

     total energy              =   -3985.71737558 Ry
     Harris-Foulkes estimate   =   -3985.71737566 Ry
     estimated scf accuracy    <       0.00000039 Ry

     iteration # 67     ecut=    60.00 Ry     beta=0.70
     Davidson diagonalization with overlap
     ethr =  1.34E-10,  avg # of iterations =  4.0

     total cpu time spent up to now is     3791.9 secs

     total energy              =   -3985.71737559 Ry
     Harris-Foulkes estimate   =   -3985.71737561 Ry
     estimated scf accuracy    <       0.00000023 Ry

     iteration # 68     ecut=    60.00 Ry     beta=0.70
     Davidson diagonalization with overlap
     ethr =  7.88E-11,  avg # of iterations =  1.0

     total cpu time spent up to now is     3835.4 secs

     total energy              =   -3985.71737558 Ry
     Harris-Foulkes estimate   =   -3985.71737559 Ry
     estimated scf accuracy    <       0.00000020 Ry

     iteration # 69     ecut=    60.00 Ry     beta=0.70
     Davidson diagonalization with overlap
     ethr =  6.80E-11,  avg # of iterations = 11.0

     total cpu time spent up to now is     3885.3 secs

     total energy              =   -3985.71737559 Ry
     Harris-Foulkes estimate   =   -3985.71737561 Ry
     estimated scf accuracy    <       0.00000010 Ry

     iteration # 70     ecut=    60.00 Ry     beta=0.70
     Davidson diagonalization with overlap
     ethr =  3.59E-11,  avg # of iterations =  9.0

     total cpu time spent up to now is     3937.6 secs

     End of self-consistent calculation

          k =-0.0123-0.0157 0.0244 (111232 PWs)   bands (ev):

   -17.2938 -17.2938 -17.2930 -17.2930 -17.1706 -17.1706 -17.1700 -17.1700
   -14.6669 -14.6668 -14.6662 -14.6662 -14.5389 -14.5388 -14.5382 -14.5381
   -14.4165 -14.4165 -14.4158 -14.4158 -14.2260 -14.2260 -14.2254 -14.2254
   -13.0990 -13.0990 -13.0988 -13.0988 -11.1645 -11.1645 -11.1638 -11.1638
   -10.9520 -10.9519 -10.9514 -10.9514 -10.7364 -10.7364 -10.7359 -10.7359
   -10.5180 -10.5180 -10.5173 -10.5173  -9.6130  -9.6129  -9.6122  -9.6121
    -8.9034  -8.9033  -8.9031  -8.9030  -8.4552  -8.4552  -8.4543  -8.4543
    -7.6503  -7.6503  -7.6495  -7.6495  -7.1518  -7.1518  -7.1512  -7.1511
    -6.9989  -6.9989  -6.9984  -6.9983  -6.7964  -6.7962  -6.7959  -6.7957
    -6.6600  -6.6599  -6.6595  -6.6594  -5.9349  -5.9346  -5.9342  -5.9339
    -5.7463  -5.7460  -5.7458  -5.7455  -5.4202  -5.4200  -5.4194  -5.4193
    -5.2937  -5.2935  -5.2930  -5.2929  -5.0446  -5.0444  -5.0440  -5.0438
    -4.9085  -4.9085  -4.9078  -4.9078  -3.8744  -3.8744  -3.8740  -3.8740
    -3.7522  -3.7520  -3.7519  -3.7516  -3.6669  -3.6666  -3.6662  -3.6659
    -2.9444  -2.9442  -2.9439  -2.9437  -2.8440  -2.8438  -2.8434  -2.8433
    -2.5439  -2.5438  -2.5432  -2.5431  -2.3782  -2.3782  -2.3777  -2.3777
    -2.2269  -2.2268  -2.2265  -2.2264  -2.0675  -2.0673  -2.0668  -2.0666
    -1.6785  -1.6782  -1.6778  -1.6775  -1.5584  -1.5581  -1.5579  -1.5576
 TIME (initial):        0.0
* Atoms contributing density to the main cell
  Number of atoms:   28980
 
 TIME (set up the environment):        0.2
 DOCALC: T F T T
 ESAVE:       0.000000000000       0.000000000000       0.000000000000
* XDM: using PAW all-electron density reconstruction? T
 TIME (promolecular grid):       82.8
 TIME (calculation of b grid):       83.8
 TIME (calculation of volumes and moments):      570.4
 
+ Volume and moments
# All results in atomic units.
# i              V                  Vfree                 M1                  M2                  M3
  1        31.2775270560        39.0349749523         4.2132642495        55.0417496748       970.6400794525
  2        31.2774827041        39.0349749523         4.2132368542        55.0437305006       970.7162392095
  3        31.2775270560        39.0349749523         4.2132642495        55.0417496748       970.6400794525
  4        31.2774827041        39.0349749523         4.2132368542        55.0437305006       970.7162392095
  5        32.0282519733        39.0349749523         4.2061641202        55.5316671931       998.7909056630
  6        32.0279678630        39.0349749523         4.2062501704        55.5345703162       998.8769157064
  7        32.0282519733        39.0349749523         4.2061641202        55.5316671931       998.7909056630
  8        32.0279678630        39.0349749523         4.2062501704        55.5345703162       998.8769157064
  9        31.7419254754        39.0349749523         4.1546548295        54.4944634023       985.7434627726
 10        31.7408463891        39.0349749523         4.1549630454        54.4998833338       985.8372784193
 11        31.7419254754        39.0349749523         4.1546548295        54.4944634023       985.7434627726
 12        31.7408463891        39.0349749523         4.1549630454        54.4998833338       985.8372784193
 13        32.4368272884        39.0349749523         4.2010165640        56.2660320622      1051.6237701180
 14        32.4398504054        39.0349749523         4.2006480087        56.2609485619      1051.5653231008
 15        32.4368272884        39.0349749523         4.2010165640        56.2660320622      1051.6237701180
 16        32.4398504054        39.0349749523         4.2006480087        56.2609485619      1051.5653231008
 17        32.5766766859        39.0349749523         4.2147668628        56.5319525925      1057.2186906229
 18        32.5785142060        39.0349749523         4.2147289842        56.5325477343      1057.2714528987
 19        32.5766766859        39.0349749523         4.2147668628        56.5319525925      1057.2186906229
 20        32.5785142060        39.0349749523         4.2147289842        56.5325477343      1057.2714528987
 21        33.5384695356        39.0349749523         3.9182882101        52.1960555908       996.1542979519
 22        33.5388138308        39.0349749523         3.9186426716        52.2023079678       996.2831148109
 23        33.5384695356        39.0349749523         3.9182882101        52.1960555908       996.1542979519
 24        33.5388138308        39.0349749523         3.9186426716        52.2023079678       996.2831148109
 25        31.9657532351        39.0349749523         4.1660740682        55.1058250509      1012.6301349345
 26        31.9669325860        39.0349749523         4.1659093271        55.1029096978      1012.5955074292
 27        31.9657532351        39.0349749523         4.1660740682        55.1058250509      1012.6301349345
 28        31.9669325860        39.0349749523         4.1659093271        55.1029096978      1012.5955074292
 29        32.9775282002        39.0349749523         4.0423742239        53.7164086834      1009.9016487023
 30        32.9763039064        39.0349749523         4.0431713211        53.7277506592      1010.0606698279
 31        32.9775282002        39.0349749523         4.0423742239        53.7164086834      1009.9016487023
 32        32.9763039064        39.0349749523         4.0431713211        53.7277506592      1010.0606698279
 33        33.5605269652        39.0349749523         3.9450636269        52.8504539293      1013.9996177723
 34        33.5606481774        39.0349749523         3.9451221335        52.8521662615      1014.0587834715
 35        33.5605269652        39.0349749523         3.9450636269        52.8504539293      1013.9996177723
 36        33.5606481774        39.0349749523         3.9451221335        52.8521662615      1014.0587834715
 37        33.9064694930        39.0349749523         3.8419002828        51.1481740896       991.3419474402
 38        33.9068205851        39.0349749523         3.8427082832        51.1593189182       991.5089913104
 39        33.9064694930        39.0349749523         3.8419002828        51.1481740896       991.3419474402
 40        33.9068205851        39.0349749523         3.8427082832        51.1593189182       991.5089913104
 41        32.6256915292        39.0349749523         4.1302872253        55.1000854038      1012.6489739983
 42        32.6258717146        39.0349749523         4.1303916772        55.1013572413      1012.6820418207
 43        32.6256915292        39.0349749523         4.1302872253        55.1000854038      1012.6489739983
 44        32.6258717146        39.0349749523         4.1303916772        55.1013572413      1012.6820418206
 45        33.8411840086        39.0349749523         3.9252421179        52.6083296006      1008.4832027397
 46        33.8415451875        39.0349749523         3.9252838144        52.6093616002      1008.5326861684
 47        33.8411840086        39.0349749523         3.9252421179        52.6083296006      1008.4832027397
 48        33.8415451875        39.0349749523         3.9252838144        52.6093616002      1008.5326861684
 49       134.6372739040       174.2312296757         9.3364975575       237.3677289962      6552.5477345451
 50       134.6364294925       174.2312296757         9.3375244739       237.3953283083      6553.4636001544
 51       134.6372739040       174.2312296757         9.3364975575       237.3677289962      6552.5477345448
 52       134.6364294925       174.2312296757         9.3375244739       237.3953283083      6553.4636001544
 53       136.8198732064       174.2312296757         9.5670429545       251.0756886196      6981.8173603696
 54       136.8219917167       174.2312296757         9.5682911303       251.1109186408      6982.7194199950
 55       136.8198732064       174.2312296757         9.5670429545       251.0756886196      6981.8173603694
 56       136.8219917167       174.2312296757         9.5682911303       251.1109186408      6982.7194199944
 57         6.3871521866        10.4882987305         1.6205615442        13.4929020100       246.5943511860
 58         6.3874052140        10.4882987305         1.6206662310        13.4938081940       246.6122354532
 59         6.3871521866        10.4882987305         1.6205615442        13.4929020100       246.5943511860
 60         6.3874052140        10.4882987305         1.6206662310        13.4938081940       246.6122354532
 61         6.9473275879        10.4882987305         1.6689355030        14.5955691356       270.6552378845
 62         6.9470131086        10.4882987305         1.6689352701        14.5957438710       270.6690419101
 63         6.9473275879        10.4882987305         1.6689355030        14.5955691356       270.6552378845
 64         6.9470131086        10.4882987305         1.6689352701        14.5957438710       270.6690419101
 65         7.9647312773        10.4882987305         1.6464116955        15.4674998979       302.6539047521
 66         7.9677993852        10.4882987305         1.6459773332        15.4639734864       302.5932064254
 67         7.9647312773        10.4882987305         1.6464116955        15.4674998979       302.6539047521
 68         7.9677993852        10.4882987305         1.6459773332        15.4639734864       302.5932064254
 69         6.8692594446        10.4882987305         1.6025836420        13.9761399198       265.4045499691
 70         6.8680816601        10.4882987305         1.6027329360        13.9766161613       265.4099484230
 71         6.8692594446        10.4882987305         1.6025836420        13.9761399198       265.4045499691
 72         6.8680816601        10.4882987305         1.6027329360        13.9766161613       265.4099484230
 73         7.5241514534        10.4882987305         1.6994505530        15.8238967342       311.7279512901
 74         7.5261853969        10.4882987305         1.6994438418        15.8255884203       311.7695656503
 75         7.5241514534        10.4882987305         1.6994505530        15.8238967342       311.7279512901
 76         7.5261853969        10.4882987305         1.6994438418        15.8255884203       311.7695656503
 77         7.1945255653        10.4882987305         1.5975987415        14.3622081011       278.6232478246
 78         7.1957253951        10.4882987305         1.5974450895        14.3613929795       278.6061925650
 79         7.1945255653        10.4882987305         1.5975987415        14.3622081011       278.6232478246
 80         7.1957253951        10.4882987305         1.5974450895        14.3613929795       278.6061925650
 81         8.0332383351        10.4882987305         1.6120972166        15.0149457677       296.6388259741
 82         8.0311960049        10.4882987305         1.6124250721        15.0172747198       296.6746306248
 83         8.0332383351        10.4882987305         1.6120972166        15.0149457677       296.6388259741
 84         8.0311960049        10.4882987305         1.6124250721        15.0172747198       296.6746306248
 85         7.5135249013        10.4882987305         1.6704905635        15.1094584451       284.1689022841
 86         7.5134505005        10.4882987305         1.6705592670        15.1102302308       284.1916723729
 87         7.5135249013        10.4882987305         1.6704905635        15.1094584451       284.1689022841
 88         7.5134505005        10.4882987305         1.6705592670        15.1102302308       284.1916723729
 89        71.1906523237        77.4908459489         7.8316562036       128.5078728813      2144.5421515691
 90        71.1922819517        77.4908459489         7.8320300103       128.5164622879      2144.7155083458
 91        71.1906523237        77.4908459489         7.8316562036       128.5078728813      2144.5421515690
 92        71.1922819517        77.4908459489         7.8320300103       128.5164622879      2144.7155083457
 
+ Dispersion coefficients
# All results in atomic units.
# i   j              C6                  C8                  C10                   Rc                  Rvdw
  1   1        20.0482505237       785.7262597869     32845.1720748420         6.3626258856         7.1515438982
  2   1        20.0481711308       785.7398409792     32846.4374647133         6.3626934654         7.1515712342
  2   2        20.0480917384       785.7534220567     32847.7028702041         6.3627610442         7.1515985699
  3   1        20.0482505237       785.7262597869     32845.1720748423         6.3626258856         7.1515438982
  3   2        20.0481711308       785.7398409792     32846.4374647136         6.3626934654         7.1515712342
  3   3        20.0482505237       785.7262597869     32845.1720748426         6.3626258856         7.1515438982
  4   1        20.0481711308       785.7398409792     32846.4374647137         6.3626934654         7.1515712342
  4   2        20.0480917384       785.7534220567     32847.7028702045         6.3627610442         7.1515985699
  4   3        20.0481711308       785.7398409792     32846.4374647140         6.3626934654         7.1515712342
  4   4        20.0480917384       785.7534220567     32847.7028702049         6.3627610442         7.1515985699
  5   1        20.2686869871       798.5772353023     33647.4445476515         6.3836984088         7.1600677338
  5   2        20.2686073757       798.5909749312     33648.7297363992         6.3837656314         7.1600949254
  5   3        20.2686869871       798.5772353023     33647.4445476519         6.3836984088         7.1600677338
  5   4        20.2686073757       798.5909749312     33648.7297363995         6.3837656314         7.1600949254
  5   5        20.4948538120       811.7467853435     34470.6016026247         6.4046427786         7.1685397314
  6   1        20.2688081899       798.5947830550     33648.7449478921         6.3837505556         7.1600888272
  6   2        20.2687285773       798.6085226861     33650.0301586046         6.3838177776         7.1601160185
  6   3        20.2688081899       798.5947830550     33648.7449478924         6.3837505556         7.1600888272
  6   4        20.2687285773       798.6085226861     33650.0301586050         6.3838177776         7.1601160185
  6   5        20.4949725497       811.7644031651     34471.9177790376         6.4046946483         7.1685607127
  6   6        20.4950912926       811.7820213381     34473.2339921490         6.4047465174         7.1685816938
  7   1        20.2686869871       798.5772353023     33647.4445476516         6.3836984088         7.1600677338
  7   2        20.2686073757       798.5909749312     33648.7297363992         6.3837656314         7.1600949254
  7   3        20.2686869871       798.5772353023     33647.4445476519         6.3836984088         7.1600677338
  7   4        20.2686073757       798.5909749312     33648.7297363996         6.3837656314         7.1600949254
  7   5        20.4948538120       811.7467853435     34470.6016026247         6.4046427786         7.1685397314
  7   6        20.4949725497       811.7644031651     34471.9177790376         6.4046946483         7.1685607127
  7   7        20.4948538120       811.7467853435     34470.6016026248         6.4046427786         7.1685397314
  8   1        20.2688081899       798.5947830550     33648.7449478915         6.3837505556         7.1600888272
  8   2        20.2687285773       798.6085226861     33650.0301586040         6.3838177776         7.1601160185
  8   3        20.2688081899       798.5947830550     33648.7449478918         6.3837505556         7.1600888272
  8   4        20.2687285773       798.6085226861     33650.0301586044         6.3838177776         7.1601160185
  8   5        20.4949725497       811.7644031651     34471.9177790369         6.4046946483         7.1685607127
  8   6        20.4950912926       811.7820213381     34473.2339921484         6.4047465174         7.1685816938
  8   7        20.4949725497       811.7644031651     34471.9177790370         6.4046946483         7.1685607127
  8   8        20.4950912926       811.7820213381     34473.2339921477         6.4047465174         7.1685816938
  9   1        20.0534996656       787.5131013075     33187.7524606021         6.3788440898         7.1581041618
  9   2        20.0534209846       787.5267085674     33189.0205292197         6.3789112731         7.1581313374
  9   3        20.0534996656       787.5131013075     33187.7524606024         6.3788440898         7.1581041618
  9   4        20.0534209846       787.5267085674     33189.0205292201         6.3789112731         7.1581313374
  9   5        20.2776956842       800.5309690959     34000.7343109644         6.3997908581         7.1665771296
  9   6        20.2778126670       800.5483654799     34002.0320265289         6.3998427019         7.1665981004
  9   7        20.2776956842       800.5309690959     34000.7343109645         6.3997908581         7.1665771296
  9   8        20.2778126670       800.5483654799     34002.0320265283         6.3998427019         7.1665981004
  9   9        20.0628945189       789.4639020377     33537.6705375872         6.3949609507         7.1646234320
 10   1        20.0539181725       787.5395070723     33189.0094900268         6.3788710540         7.1581150688
 10   2        20.0538394871       787.5531144688     33190.2775938280         6.3789382371         7.1581422444
 10   3        20.0539181725       787.5395070723     33189.0094900271         6.3788710540         7.1581150688
 10   4        20.0538394871       787.5531144688     33190.2775938284         6.3789382371         7.1581422444
 10   5        20.2781049385       800.5572080076     34001.9951675682         6.3998177361         7.1665880017
 10   6        20.2782219397       800.5746054359     34003.2929514693         6.3998695798         7.1666089725
 10   7        20.2781049385       800.5572080076     34001.9951675683         6.3998177361         7.1665880017
 10   8        20.2782219397       800.5746054359     34003.2929514687         6.3998695798         7.1666089725
 10   9        20.0632976247       789.4897394367     33538.9105290657         6.3949877671         7.1646342793
 10  10        20.0637007972       789.5155798650     33540.1506642195         6.3950145836         7.1646451266
 11   1        20.0534996656       787.5131013075     33187.7524606022         6.3788440898         7.1581041618
 11   2        20.0534209846       787.5267085674     33189.0205292198         6.3789112731         7.1581313374
 11   3        20.0534996656       787.5131013075     33187.7524606025         6.3788440898         7.1581041618
 11   4        20.0534209846       787.5267085674     33189.0205292202         6.3789112731         7.1581313374
 11   5        20.2776956842       800.5309690959     34000.7343109645         6.3997908581         7.1665771296
 11   6        20.2778126670       800.5483654799     34002.0320265290         6.3998427019         7.1665981004
 11   7        20.2776956842       800.5309690959     34000.7343109646         6.3997908581         7.1665771296
 11   8        20.2778126670       800.5483654799     34002.0320265284         6.3998427019         7.1665981004
 11   9        20.0628945189       789.4639020377     33537.6705375873         6.3949609507         7.1646234320
 11  10        20.0632976247       789.4897394367     33538.9105290658         6.3949877671         7.1646342793
 11  11        20.0628945189       789.4639020377     33537.6705375874         6.3949609507         7.1646234320
 12   1        20.0539181725       787.5395070723     33189.0094900268         6.3788710540         7.1581150688
 12   2        20.0538394871       787.5531144688     33190.2775938280         6.3789382371         7.1581422444
 12   3        20.0539181725       787.5395070723     33189.0094900271         6.3788710540         7.1581150688
 12   4        20.0538394871       787.5531144688     33190.2775938284         6.3789382371         7.1581422444
 12   5        20.2781049385       800.5572080076     34001.9951675682         6.3998177361         7.1665880017
 12   6        20.2782219397       800.5746054359     34003.2929514693         6.3998695798         7.1666089725
 12   7        20.2781049385       800.5572080076     34001.9951675683         6.3998177361         7.1665880017
 12   8        20.2782219397       800.5746054359     34003.2929514687         6.3998695798         7.1666089725
 12   9        20.0632976247       789.4897394367     33538.9105290657         6.3949877671         7.1646342793
 12  10        20.0637007972       789.5155798651     33540.1506642195         6.3950145836         7.1646451266
 12  11        20.0632976247       789.4897394367     33538.9105290658         6.3949877671         7.1646342793
 12  12        20.0637007972       789.5155798651     33540.1506642195         6.3950145836         7.1646451266
 13   1        20.3827812647       808.9116640497     34574.9772051026         6.4183651708         7.1740904391
 13   2        20.3827015653       808.9254723736     34576.2764152735         6.4184317299         7.1741173622
 13   3        20.3827812647       808.9116640497     34574.9772051029         6.4183651708         7.1740904391
 13   4        20.3827015653       808.9254723736     34576.2764152739         6.4184317299         7.1741173622
 13   5        20.6120406834       822.2930886458     35416.4207078605         6.4390830036         7.1824708024
 13   6        20.6121579993       822.3107576042     35417.7520837829         6.4391343614         7.1824915767
 13   7        20.6120406834       822.2930886458     35416.4207078606         6.4390830036         7.1824708024
 13   8        20.6121579993       822.3107576042     35417.7520837823         6.4391343614         7.1824915767
 13   9        20.3938777048       810.9599932128     34934.9329726450         6.4342508356         7.1805161905
 13  10        20.3942816370       810.9861954958     34936.2082647290         6.4342775168         7.1805269830
 13  11        20.3938777048       810.9599932128     34934.9329726451         6.4342508356         7.1805161905
 13  12        20.3942816370       810.9861954958     34936.2082647290         6.4342775168         7.1805269830
 13  13        20.7308990219       832.9736942983     36376.8618493604         6.4731335490         7.1962442481
 14   1        20.3828006123       808.9113599075     34575.2989440071         6.4183787977         7.1740959511
 14   2        20.3827209174       808.9251684346     34576.5981605640         6.4184453562         7.1741228741
 14   3        20.3828006123       808.9113599075     34575.2989440075         6.4183787977         7.1740959511
 14   4        20.3827209174       808.9251684346     34576.5981605644         6.4184453562         7.1741228741
 14   5        20.6120839301       822.2937298939     35416.7867655686         6.4390964878         7.1824762568
 14   6        20.6122012189       822.3113977924     35418.1180976863         6.4391478452         7.1824970309
 14   7        20.6120839301       822.2937298939     35416.7867655686         6.4390964878         7.1824762568
 14   8        20.6122012189       822.3113977924     35418.1180976856         6.4391478452         7.1824970309
 14   9        20.3939235763       810.9607447322     34935.3004707820         6.4342643730         7.1805216663
 14  10        20.3943274095       810.9869430847     34936.5755995147         6.4342910539         7.1805324588
 14  11        20.3939235763       810.9607447322     34935.3004707821         6.4342643730         7.1805216663
 14  12        20.3943274095       810.9869430847     34936.5755995147         6.4342910539         7.1805324588
 14  13        20.7309555525       832.9748754352     36377.2538936174         6.4731468165         7.1962496148
 14  14        20.7310122529       832.9760633893     36377.6462375596         6.4731600840         7.1962549814
 15   1        20.3827812647       808.9116640497     34574.9772051026         6.4183651708         7.1740904391
 15   2        20.3827015653       808.9254723736     34576.2764152735         6.4184317299         7.1741173622
 15   3        20.3827812647       808.9116640497     34574.9772051029         6.4183651708         7.1740904391
 15   4        20.3827015653       808.9254723736     34576.2764152739         6.4184317299         7.1741173622
 15   5        20.6120406834       822.2930886458     35416.4207078605         6.4390830036         7.1824708024
 15   6        20.6121579993       822.3107576042     35417.7520837829         6.4391343614         7.1824915767
 15   7        20.6120406834       822.2930886458     35416.4207078606         6.4390830036         7.1824708024
 15   8        20.6121579993       822.3107576042     35417.7520837823         6.4391343614         7.1824915767
 15   9        20.3938777048       810.9599932128     34934.9329726450         6.4342508356         7.1805161905
 15  10        20.3942816370       810.9861954958     34936.2082647290         6.4342775168         7.1805269830
 15  11        20.3938777048       810.9599932128     34934.9329726451         6.4342508356         7.1805161905
 15  12        20.3942816370       810.9861954958     34936.2082647290         6.4342775168         7.1805269830
 15  13        20.7308990219       832.9736942983     36376.8618493605         6.4731335490         7.1962442481
 15  14        20.7309555525       832.9748754352     36377.2538936174         6.4731468165         7.1962496148
 15  15        20.7308990219       832.9736942983     36376.8618493605         6.4731335490         7.1962442481
 16   1        20.3828006123       808.9113599075     34575.2989440074         6.4183787977         7.1740959511
 16   2        20.3827209174       808.9251684346     34576.5981605642         6.4184453562         7.1741228741
 16   3        20.3828006123       808.9113599075     34575.2989440077         6.4183787977         7.1740959511
 16   4        20.3827209174       808.9251684346     34576.5981605646         6.4184453562         7.1741228741
 16   5        20.6120839301       822.2937298939     35416.7867655688         6.4390964878         7.1824762568
 16   6        20.6122012189       822.3113977924     35418.1180976865         6.4391478452         7.1824970309
 16   7        20.6120839301       822.2937298939     35416.7867655689         6.4390964878         7.1824762568
 16   8        20.6122012189       822.3113977924     35418.1180976859         6.4391478452         7.1824970309
 16   9        20.3939235763       810.9607447322     34935.3004707822         6.4342643730         7.1805216663
 16  10        20.3943274095       810.9869430847     34936.5755995149         6.4342910539         7.1805324588
 16  11        20.3939235763       810.9607447322     34935.3004707823         6.4342643730         7.1805216663
 16  12        20.3943274095       810.9869430847     34936.5755995149         6.4342910539         7.1805324588
 16  13        20.7309555525       832.9748754352     36377.2538936177         6.4731468165         7.1962496148
 16  14        20.7310122529       832.9760633893     36377.6462375598         6.4731600840         7.1962549814
 16  15        20.7309555525       832.9748754352     36377.2538936177         6.4731468165         7.1962496148
 16  16        20.7310122529       832.9760633893     36377.6462375601         6.4731600840         7.1962549814
 17   1        20.4598647296       812.5661125562     34748.4099282238         6.4203327185         7.1748863121
 17   2        20.4597847556       812.5799718405     34749.7148557928         6.4203992590         7.1749132278
 17   3        20.4598647296       812.5661125562     34748.4099282241         6.4203327185         7.1748863121
 17   4        20.4597847556       812.5799718405     34749.7148557932         6.4203992590         7.1749132278
 17   5        20.6901270657       826.0102645761     35593.9829279247         6.4410420104         7.1832632207
 17   6        20.6902446692       826.0279976330     35595.3200327584         6.4410933534         7.1832839889
 17   7        20.6901270657       826.0102645761     35593.9829279247         6.4410420104         7.1832632207
 17   8        20.6902446692       826.0279976330     35595.3200327578         6.4410933534         7.1832839889
 17   9        20.4711552918       814.6285671222     35110.0988375143         6.4362074610         7.1813076455
 17  10        20.4715601818       814.6548576999     35111.3793800811         6.4362341438         7.1813184386
 17  11        20.4711552918       814.6285671222     35110.0988375144         6.4362074610         7.1813076455
 17  12        20.4715601818       814.6548577000     35111.3793800811         6.4362341438         7.1813184386
 17  13        20.8095104899       836.7378118026     36558.7680078138         6.4750756613         7.1970298325
 17  14        20.8095682085       836.7390382202     36559.1633097379         6.4750889135         7.1970351930
 17  15        20.8095104899       836.7378118026     36558.7680078138         6.4750756613         7.1970298325
 17  16        20.8095682085       836.7390382202     36559.1633097382         6.4750889135         7.1970351930
 17  17        20.8884256401       840.5187236668     36741.5735091726         6.4770174966         7.1978153049
 18   1        20.4603363084       812.5928745775     34750.1092054849         6.4203743342         7.1749031456
 18   2        20.4602563343       812.6067342173     34751.4141749923         6.4204408740         7.1749300610
 18   3        20.4603363084       812.5928745775     34750.1092054852         6.4203743342         7.1749031456
 18   4        20.4602563343       812.6067342173     34751.4141749927         6.4204408740         7.1749300610
 18   5        20.6906125433       826.0377698798     35595.7297368379         6.4410833725         7.1832799516
 18   6        20.6907301396       826.0555030030     35597.0668707168         6.4411347148         7.1833007196
 18   7        20.6906125433       826.0377698798     35595.7297368380         6.4410833725         7.1832799516
 18   8        20.6907301396       826.0555030030     35597.0668707161         6.4411347148         7.1833007196
 18   9        20.4716367497       814.6557638908     35111.8246277977         6.4362488337         7.1813243807
 18  10        20.4720416130       814.6820538051     35113.1051636474         6.4362755163         7.1813351738
 18  11        20.4716367497       814.6557638908     35111.8246277978         6.4362488337         7.1813243807
 18  12        20.4720416130       814.6820538051     35113.1051636473         6.4362755163         7.1813351738
 18  13        20.8100034976       836.7658058410     36560.5553920408         6.4751165788         7.1970463836
 18  14        20.8100612791       836.7670347853     36560.9508132240         6.4751298307         7.1970517440
 18  15        20.8100034976       836.7658058410     36560.5553920408         6.4751165788         7.1970463836
 18  16        20.8100612791       836.7670347853     36560.9508132242         6.4751298307         7.1970517440
 18  17        20.8889208707       840.5468524794     36743.3697847740         6.4770583965         7.1978318489
 18  18        20.8894161353       840.5749830520     36745.1661701891         6.4770992958         7.1978483926
 19   1        20.4598647296       812.5661125562     34748.4099282232         6.4203327185         7.1748863121
 19   2        20.4597847556       812.5799718405     34749.7148557922         6.4203992590         7.1749132278
 19   3        20.4598647296       812.5661125562     34748.4099282236         6.4203327185         7.1748863121
 19   4        20.4597847556       812.5799718405     34749.7148557926         6.4203992590         7.1749132278
 19   5        20.6901270657       826.0102645761     35593.9829279241         6.4410420104         7.1832632207
 19   6        20.6902446692       826.0279976330     35595.3200327578         6.4410933534         7.1832839889
 19   7        20.6901270657       826.0102645761     35593.9829279242         6.4410420104         7.1832632207
 19   8        20.6902446692       826.0279976330     35595.3200327572         6.4410933534         7.1832839889
 19   9        20.4711552918       814.6285671222     35110.0988375137         6.4362074610         7.1813076455
 19  10        20.4715601818       814.6548576999     35111.3793800805         6.4362341438         7.1813184386
 19  11        20.4711552918       814.6285671222     35110.0988375138         6.4362074610         7.1813076455
 19  12        20.4715601818       814.6548576999     35111.3793800805         6.4362341438         7.1813184386
 19  13        20.8095104899       836.7378118026     36558.7680078132         6.4750756613         7.1970298325
 19  14        20.8095682085       836.7390382202     36559.1633097373         6.4750889135         7.1970351930
 19  15        20.8095104899       836.7378118026     36558.7680078132         6.4750756613         7.1970298325
 19  16        20.8095682085       836.7390382202     36559.1633097376         6.4750889135         7.1970351930
 19  17        20.8884256401       840.5187236668     36741.5735091720         6.4770174966         7.1978153049
 19  18        20.8889208707       840.5468524794     36743.3697847734         6.4770583965         7.1978318489
 19  19        20.8884256401       840.5187236668     36741.5735091714         6.4770174966         7.1978153049
 20   1        20.4603363084       812.5928745775     34750.1092054850         6.4203743342         7.1749031456
 20   2        20.4602563343       812.6067342173     34751.4141749925         6.4204408740         7.1749300610
 20   3        20.4603363084       812.5928745775     34750.1092054854         6.4203743342         7.1749031456
 20   4        20.4602563343       812.6067342173     34751.4141749929         6.4204408740         7.1749300610
 20   5        20.6906125433       826.0377698798     35595.7297368381         6.4410833725         7.1832799516
 20   6        20.6907301396       826.0555030030     35597.0668707169         6.4411347148         7.1833007196
 20   7        20.6906125433       826.0377698798     35595.7297368382         6.4410833725         7.1832799516
 20   8        20.6907301396       826.0555030030     35597.0668707163         6.4411347148         7.1833007196
 20   9        20.4716367497       814.6557638908     35111.8246277978         6.4362488337         7.1813243807
 20  10        20.4720416130       814.6820538051     35113.1051636475         6.4362755163         7.1813351738
 20  11        20.4716367497       814.6557638908     35111.8246277979         6.4362488337         7.1813243807
 20  12        20.4720416130       814.6820538051     35113.1051636475         6.4362755163         7.1813351738
 20  13        20.8100034976       836.7658058410     36560.5553920410         6.4751165788         7.1970463836
 20  14        20.8100612791       836.7670347853     36560.9508132242         6.4751298307         7.1970517440
 20  15        20.8100034976       836.7658058410     36560.5553920410         6.4751165788         7.1970463836
 20  16        20.8100612791       836.7670347853     36560.9508132244         6.4751298307         7.1970517440
 20  17        20.8889208707       840.5468524794     36743.3697847742         6.4770583965         7.1978318489
 20  18        20.8894161353       840.5749830520     36745.1661701893         6.4770992958         7.1978483926
 20  19        20.8889208707       840.5468524794     36743.3697847736         6.4770583965         7.1978318489
 20  20        20.8894161353       840.5749830520     36745.1661701894         6.4770992958         7.1978483926
 21   1        19.9696852159       790.3519541475     33951.0376618258         6.4221610871         7.1756258872
 21   2        19.9696097418       790.3655943940     33952.3113127925         6.4222273680         7.1756526978
 21   3        19.9696852159       790.3519541475     33951.0376618261         6.4221610871         7.1756258872
 21   4        19.9696097418       790.3655943940     33952.3113127928         6.4222273680         7.1756526978
 21   5        20.2074991025       803.9630216936     34798.1743933223         6.4428084423         7.1839777424
 21   6        20.2075988642       803.9797245954     34799.4512338438         6.4428595925         7.1839984326
 21   7        20.2074991025       803.9630216936     34798.1743933224         6.4428084423         7.1839777424
 21   8        20.2075988642       803.9797245954     34799.4512338432         6.4428595925         7.1839984326
 21   9        19.9953374581       792.9437405968     34328.7972310499         6.4380167676         7.1820395100
 21  10        19.9956778242       792.9671800925     34329.9515232891         6.4380432891         7.1820502379
 21  11        19.9953374581       792.9437405968     34328.7972310499         6.4380167676         7.1820395100
 21  12        19.9956778242       792.9671800925     34329.9515232890         6.4380432891         7.1820502379
 21  13        20.3312978747       814.7128191569     35751.8196941699         6.4767618920         7.1977119128
 21  14        20.3314480194       814.7177664689     35752.3711401132         6.4767751706         7.1977172840
 21  15        20.3312978747       814.7128191569     35751.8196941699         6.4767618920         7.1977119128
 21  16        20.3314480194       814.7177664689     35752.3711401135         6.4767751706         7.1977172840
 21  17        20.4089375702       818.4178157950     35931.3449261458         6.4786947884         7.1984937694
 21  18        20.4094554479       818.4465964133     35933.1585848502         6.4787355768         7.1985102683
 21  19        20.4089375702       818.4178157949     35931.3449261452         6.4786947884         7.1984937694
 21  20        20.4094554479       818.4465964133     35933.1585848503         6.4787355768         7.1985102683
 21  21        19.9924027377       798.9646310307     35231.1998163727         6.4804210362         7.1991920366
 22   1        19.9707478558       790.4057111670     33953.6667428763         6.4221998605         7.1756415711
 22   2        19.9706723758       790.4193520150     33954.9404732505         6.4222661411         7.1756683816
 22   3        19.9707478558       790.4057111670     33953.6667428766         6.4221998605         7.1756415711
 22   4        19.9706723758       790.4193520150     33954.9404732508         6.4222661411         7.1756683816
 22   5        20.2085641476       804.0172345388     34800.8452888249         6.4428470526         7.1839933603
 22   6        20.2086639263       804.0339388506     34802.1222350946         6.4428982025         7.1840140504
 22   7        20.2085641476       804.0172345388     34800.8452888250         6.4428470526         7.1839933603
 22   8        20.2086639263       804.0339388506     34802.1222350939         6.4428982025         7.1840140504
[...]
  Fvdw (85) =  -2.909722484300E-04  -1.371810473624E-05   5.436872492945E-05  Hartree/bohr
            =  -5.819444968600E-04  -2.743620947247E-05   1.087374498589E-04  Ry/bohr
  Fvdw (86) =   2.910282374779E-04  -1.355662037412E-05  -5.437855323398E-05  Hartree/bohr
            =   5.820564749558E-04  -2.711324074824E-05  -1.087571064680E-04  Ry/bohr
  Fvdw (87) =   2.909722484300E-04   1.371810473624E-05  -5.436872492945E-05  Hartree/bohr
            =   5.819444968600E-04   2.743620947248E-05  -1.087374498589E-04  Ry/bohr
  Fvdw (88) =  -2.910282374779E-04   1.355662037412E-05   5.437855323398E-05  Hartree/bohr
            =  -5.820564749558E-04   2.711324074825E-05   1.087571064680E-04  Ry/bohr
  Fvdw (89) =  -1.071129615715E-03   4.639772819667E-04  -1.642622962569E-05  Hartree/bohr
            =  -2.142259231430E-03   9.279545639333E-04  -3.285245925137E-05  Ry/bohr
  Fvdw (90) =   1.070335223497E-03   4.648411001485E-04   1.700342323335E-05  Hartree/bohr
            =   2.140670446995E-03   9.296822002971E-04   3.400684646670E-05  Ry/bohr
  Fvdw (91) =   1.071129615715E-03  -4.639772819667E-04   1.642622962569E-05  Hartree/bohr
            =   2.142259231430E-03  -9.279545639333E-04   3.285245925137E-05  Ry/bohr
  Fvdw (92) =  -1.070335223497E-03  -4.648411001485E-04  -1.700342323335E-05  Hartree/bohr
            =  -2.140670446995E-03  -9.296822002971E-04  -3.400684646670E-05  Ry/bohr
  sigma_vdw (Hy/bohr**3) =  -1.123431759271E-05  -5.041944792754E-10   4.694556117861E-07  
                            -5.041944792754E-10  -1.762128315765E-05   2.254889663159E-10  
                             4.694556117861E-07   2.254889663159E-10  -2.020996536498E-05  
  sigma_vdw (Ry/bohr**3) =  -2.246863518542E-05  -1.008388958551E-09   9.389112235722E-07  
                            -1.008388958551E-09  -3.524256631530E-05   4.509779326318E-10  
                             9.389112235722E-07   4.509779326318E-10  -4.041993072996E-05  
  sigma_vdw (GPa) =  -3.305249792675E-01  -1.483391122194E-05   1.381185862623E-02  
                     -1.483391122194E-05  -5.184359621566E-01   6.634113314100E-06  
                      1.381185862623E-02   6.634113314100E-06  -5.945976093459E-01  
 
 TIME (final):     1141.7

!    total energy              =   -3986.25100215 Ry
     Harris-Foulkes estimate   =   -3986.25100219 Ry
     estimated scf accuracy    <       0.00000005 Ry

     total all-electron energy =   -110611.610400 Ry

     The total energy is the sum of the following terms:

     one-electron contribution =   -1826.86419487 Ry
     hartree contribution      =     994.60786833 Ry
     xc contribution           =    -329.18877992 Ry
     ewald contribution        =     332.12814276 Ry
     Dispersion XDM Correction =      -0.53362655 Ry
     Uncorrected (XDM) energy  =   -3985.71737560 Ry
     one-center paw contrib.   =   -3156.40041190 Ry

     convergence has been achieved in  78 iterations

     Forces acting on atoms (Ry/au):

     atom    1 type  1   force =    -0.00035904   -0.00013943    0.00001011
     atom    2 type  1   force =     0.00050878   -0.00019095   -0.00005665
     atom    3 type  1   force =     0.00035904    0.00013943   -0.00001011
     atom    4 type  1   force =    -0.00050878    0.00019095    0.00005665
     atom    5 type  1   force =    -0.00010571   -0.00024892   -0.00006002
     atom    6 type  1   force =     0.00006867   -0.00022200    0.00006264
     atom    7 type  1   force =     0.00010571    0.00024892    0.00006002
     atom    8 type  1   force =    -0.00006867    0.00022200   -0.00006264
     atom    9 type  1   force =    -0.00038501    0.00036477    0.00066055
     atom   10 type  1   force =     0.00030693    0.00042451   -0.00063468
     atom   11 type  1   force =     0.00038501   -0.00036477   -0.00066055
     atom   12 type  1   force =    -0.00030693   -0.00042451    0.00063468
     atom   13 type  1   force =     0.00028125    0.00020306   -0.00009803
     atom   14 type  1   force =    -0.00028173    0.00012260    0.00017382
     atom   15 type  1   force =    -0.00028125   -0.00020306    0.00009803
     atom   16 type  1   force =     0.00028173   -0.00012260   -0.00017382
     atom   17 type  1   force =     0.00001723    0.00011056   -0.00017873
     atom   18 type  1   force =    -0.00007338    0.00008000    0.00015933
     atom   19 type  1   force =    -0.00001723   -0.00011056    0.00017873
     atom   20 type  1   force =     0.00007338   -0.00008000   -0.00015933
     atom   21 type  1   force =     0.00021427   -0.00012938   -0.00003628
     atom   22 type  1   force =    -0.00020549   -0.00011694    0.00009305
     atom   23 type  1   force =    -0.00021427    0.00012938    0.00003628
     atom   24 type  1   force =     0.00020549    0.00011694   -0.00009305
     atom   25 type  1   force =     0.00000012   -0.00001020    0.00009127
     atom   26 type  1   force =    -0.00007812    0.00000475   -0.00009510
     atom   27 type  1   force =    -0.00000012    0.00001020   -0.00009127
     atom   28 type  1   force =     0.00007812   -0.00000475    0.00009510
     atom   29 type  1   force =    -0.00001596    0.00036516    0.00035649
     atom   30 type  1   force =     0.00002498    0.00037809   -0.00032196
     atom   31 type  1   force =     0.00001596   -0.00036516   -0.00035649
     atom   32 type  1   force =    -0.00002498   -0.00037809    0.00032196
     atom   33 type  1   force =    -0.00013392   -0.00028386    0.00016164
     atom   34 type  1   force =     0.00013998   -0.00030747   -0.00020158
     atom   35 type  1   force =     0.00013392    0.00028386   -0.00016164
     atom   36 type  1   force =    -0.00013998    0.00030747    0.00020158
     atom   37 type  1   force =     0.00029563    0.00004585    0.00015387
     atom   38 type  1   force =    -0.00026404   -0.00000805   -0.00021551
     atom   39 type  1   force =    -0.00029563   -0.00004585   -0.00015387
     atom   40 type  1   force =     0.00026404    0.00000805    0.00021551
     atom   41 type  1   force =     0.00005580   -0.00030218    0.00036573
     atom   42 type  1   force =    -0.00003893   -0.00039264   -0.00029455
     atom   43 type  1   force =    -0.00005580    0.00030218   -0.00036573
     atom   44 type  1   force =     0.00003893    0.00039264    0.00029455
     atom   45 type  1   force =    -0.00015891   -0.00047817    0.00017965
     atom   46 type  1   force =     0.00015358   -0.00044945   -0.00022123
     atom   47 type  1   force =     0.00015891    0.00047817   -0.00017965
     atom   48 type  1   force =    -0.00015358    0.00044945    0.00022123
     atom   49 type  3   force =    -0.00018668    0.00035783   -0.00006273
     atom   50 type  3   force =     0.00018700    0.00032901    0.00009641
     atom   51 type  3   force =     0.00018668   -0.00035783    0.00006273
     atom   52 type  3   force =    -0.00018700   -0.00032901   -0.00009641
     atom   53 type  3   force =     0.00035565   -0.00069801    0.00018454
     atom   54 type  3   force =    -0.00032817   -0.00072245   -0.00023890
     atom   55 type  3   force =    -0.00035565    0.00069801   -0.00018454
     atom   56 type  3   force =     0.00032817    0.00072245    0.00023890
     atom   57 type  4   force =    -0.00080768   -0.00044782   -0.00051064
     atom   58 type  4   force =     0.00075690   -0.00045095    0.00053101
     atom   59 type  4   force =     0.00080768    0.00044782    0.00051064
     atom   60 type  4   force =    -0.00075690    0.00045095   -0.00053101
     atom   61 type  4   force =    -0.00059479   -0.00048132   -0.00004312
     atom   62 type  4   force =     0.00055745   -0.00044860    0.00006989
     atom   63 type  4   force =     0.00059479    0.00048132    0.00004312
     atom   64 type  4   force =    -0.00055745    0.00044860   -0.00006989
     atom   65 type  4   force =     0.00072402    0.00051358   -0.00035090
     atom   66 type  4   force =    -0.00072258    0.00050510    0.00028510
     atom   67 type  4   force =    -0.00072402   -0.00051358    0.00035090
     atom   68 type  4   force =     0.00072258   -0.00050510   -0.00028510
     atom   69 type  4   force =    -0.00045146    0.00048420    0.00082572
     atom   70 type  4   force =     0.00047841    0.00043526   -0.00088587
     atom   71 type  4   force =     0.00045146   -0.00048420   -0.00082572
     atom   72 type  4   force =    -0.00047841   -0.00043526    0.00088587
     atom   73 type  4   force =     0.00013199    0.00045786   -0.00025956
     atom   74 type  4   force =    -0.00007617    0.00046919    0.00029337
     atom   75 type  4   force =    -0.00013199   -0.00045786    0.00025956
     atom   76 type  4   force =     0.00007617   -0.00046919   -0.00029337
     atom   77 type  4   force =     0.00003494    0.00005991    0.00044076
     atom   78 type  4   force =     0.00003388   -0.00000038   -0.00043949
     atom   79 type  4   force =    -0.00003494   -0.00005991   -0.00044076
     atom   80 type  4   force =    -0.00003388    0.00000038    0.00043949
     atom   81 type  4   force =    -0.00019432   -0.00010989    0.00020398
     atom   82 type  4   force =     0.00011975   -0.00007936   -0.00015509
     atom   83 type  4   force =     0.00019432    0.00010989   -0.00020398
     atom   84 type  4   force =    -0.00011975    0.00007936    0.00015509
     atom   85 type  4   force =     0.00035182    0.00001150    0.00047298
     atom   86 type  4   force =    -0.00034697    0.00005898   -0.00050713
     atom   87 type  4   force =    -0.00035182   -0.00001150   -0.00047298
     atom   88 type  4   force =     0.00034697   -0.00005898    0.00050713
     atom   89 type  2   force =     0.00030141    0.00018287    0.00028632
     atom   90 type  2   force =    -0.00032774    0.00014246   -0.00023166
     atom   91 type  2   force =    -0.00030141   -0.00018287   -0.00028632
     atom   92 type  2   force =     0.00032774   -0.00014246    0.00023166

     Total force =     0.005619     Total SCF correction =     0.000498

     Total XDM Dispersion Force =     0.012183

     XDM Dispersion forces acting on atoms:
     atom    1 type  1   force =     0.00126351   -0.00008077   -0.00008893
     atom    2 type  1   force =    -0.00126234   -0.00007941    0.00008878
     atom    3 type  1   force =    -0.00126351    0.00008077    0.00008893
     atom    4 type  1   force =     0.00126234    0.00007941   -0.00008878
     atom    5 type  1   force =     0.00145386   -0.00042299   -0.00027374
     atom    6 type  1   force =    -0.00145321   -0.00042161    0.00027348
     atom    7 type  1   force =    -0.00145386    0.00042299    0.00027374
     atom    8 type  1   force =     0.00145321    0.00042161   -0.00027348
     atom    9 type  1   force =     0.00147457    0.00007380    0.00034068
     atom   10 type  1   force =    -0.00147309    0.00007506   -0.00034044
     atom   11 type  1   force =    -0.00147457   -0.00007380   -0.00034068
     atom   12 type  1   force =     0.00147309   -0.00007506    0.00034044
     atom   13 type  1   force =    -0.00013228    0.00070791   -0.00010757
     atom   14 type  1   force =     0.00013285    0.00071130    0.00010737
     atom   15 type  1   force =     0.00013228   -0.00070791    0.00010757
     atom   16 type  1   force =    -0.00013285   -0.00071130   -0.00010737
     atom   17 type  1   force =     0.00035780   -0.00010383   -0.00031230
     atom   18 type  1   force =    -0.00035786   -0.00010028    0.00031238
     atom   19 type  1   force =    -0.00035780    0.00010383    0.00031230
     atom   20 type  1   force =     0.00035786    0.00010028   -0.00031238
     atom   21 type  1   force =     0.00102310   -0.00032264    0.00001025
     atom   22 type  1   force =    -0.00102293   -0.00032111   -0.00001051
     atom   23 type  1   force =    -0.00102310    0.00032264   -0.00001025
     atom   24 type  1   force =     0.00102293    0.00032111    0.00001051
     atom   25 type  1   force =    -0.00079925   -0.00005980    0.00044734
     atom   26 type  1   force =     0.00079990   -0.00005731   -0.00044690
     atom   27 type  1   force =     0.00079925    0.00005980   -0.00044734
     atom   28 type  1   force =    -0.00079990    0.00005731    0.00044690
     atom   29 type  1   force =     0.00086242    0.00020238    0.00027868
     atom   30 type  1   force =    -0.00086274    0.00020350   -0.00027865
     atom   31 type  1   force =    -0.00086242   -0.00020238   -0.00027868
     atom   32 type  1   force =     0.00086274   -0.00020350    0.00027865
     atom   33 type  1   force =     0.00002657   -0.00066419   -0.00001664
     atom   34 type  1   force =    -0.00002698   -0.00066274    0.00001670
     atom   35 type  1   force =    -0.00002657    0.00066419    0.00001664
     atom   36 type  1   force =     0.00002698    0.00066274   -0.00001670
     atom   37 type  1   force =     0.00043676    0.00017064    0.00004675
     atom   38 type  1   force =    -0.00043692    0.00017221   -0.00004694
     atom   39 type  1   force =    -0.00043676   -0.00017064   -0.00004675
     atom   40 type  1   force =     0.00043692   -0.00017221    0.00004694
     atom   41 type  1   force =    -0.00116032   -0.00047334    0.00025598
     atom   42 type  1   force =     0.00116054   -0.00047206   -0.00025614
     atom   43 type  1   force =     0.00116032    0.00047334   -0.00025598
     atom   44 type  1   force =    -0.00116054    0.00047206    0.00025614
     atom   45 type  1   force =    -0.00086070   -0.00040991    0.00004514
     atom   46 type  1   force =     0.00086045   -0.00040907   -0.00004549
     atom   47 type  1   force =     0.00086070    0.00040991   -0.00004514
     atom   48 type  1   force =    -0.00086045    0.00040907    0.00004549
     atom   49 type  3   force =     0.00133112   -0.00125841   -0.00131248
     atom   50 type  3   force =    -0.00133271   -0.00125606    0.00131391
     atom   51 type  3   force =    -0.00133112    0.00125841    0.00131248
     atom   52 type  3   force =     0.00133271    0.00125606   -0.00131391
     atom   53 type  3   force =    -0.00324282    0.00120195    0.00008705
     atom   54 type  3   force =     0.00324105    0.00120452   -0.00008865
     atom   55 type  3   force =     0.00324282   -0.00120195   -0.00008705
     atom   56 type  3   force =    -0.00324105   -0.00120452    0.00008865
     atom   57 type  4   force =     0.00035041   -0.00001351   -0.00000607
     atom   58 type  4   force =    -0.00035016   -0.00001330    0.00000603
     atom   59 type  4   force =    -0.00035041    0.00001351    0.00000607
     atom   60 type  4   force =     0.00035016    0.00001330   -0.00000603
     atom   61 type  4   force =     0.00044840   -0.00025045   -0.00008378
     atom   62 type  4   force =    -0.00044820   -0.00025016    0.00008375
     atom   63 type  4   force =    -0.00044840    0.00025045    0.00008378
     atom   64 type  4   force =     0.00044820    0.00025016   -0.00008375
     atom   65 type  4   force =     0.00005261    0.00036814    0.00002251
     atom   66 type  4   force =    -0.00005229    0.00036769   -0.00002289
     atom   67 type  4   force =    -0.00005261   -0.00036814   -0.00002251
     atom   68 type  4   force =     0.00005229   -0.00036769    0.00002289
     atom   69 type  4   force =     0.00048725    0.00011775    0.00010748
     atom   70 type  4   force =    -0.00048677    0.00011786   -0.00010746
     atom   71 type  4   force =    -0.00048725   -0.00011775   -0.00010748
     atom   72 type  4   force =     0.00048677   -0.00011786    0.00010746
     atom   73 type  4   force =     0.00035620    0.00009571   -0.00009184
     atom   74 type  4   force =    -0.00035633    0.00009628    0.00009188
     atom   75 type  4   force =    -0.00035620   -0.00009571    0.00009184
     atom   76 type  4   force =     0.00035633   -0.00009628   -0.00009188
     atom   77 type  4   force =    -0.00040196    0.00001268    0.00011644
     atom   78 type  4   force =     0.00040236    0.00001335   -0.00011610
     atom   79 type  4   force =     0.00040196   -0.00001268   -0.00011644
     atom   80 type  4   force =    -0.00040236   -0.00001335    0.00011610
     atom   81 type  4   force =     0.00003661    0.00018996    0.00006429
     atom   82 type  4   force =    -0.00003693    0.00019035   -0.00006444
     atom   83 type  4   force =    -0.00003661   -0.00018996   -0.00006429
     atom   84 type  4   force =     0.00003693   -0.00019035    0.00006444
     atom   85 type  4   force =    -0.00058194   -0.00002744    0.00010874
     atom   86 type  4   force =     0.00058206   -0.00002711   -0.00010876
     atom   87 type  4   force =     0.00058194    0.00002744   -0.00010874
     atom   88 type  4   force =    -0.00058206    0.00002711    0.00010876
     atom   89 type  2   force =    -0.00214226    0.00092795   -0.00003285
     atom   90 type  2   force =     0.00214067    0.00092968    0.00003401
     atom   91 type  2   force =     0.00214226   -0.00092795    0.00003285
     atom   92 type  2   force =    -0.00214067   -0.00092968   -0.00003401


     entering subroutine stress ...

          total   stress  (Ry/bohr**3)                   (kbar)     P=   -0.08
  -0.00000213   0.00000002   0.00000036         -0.31      0.00      0.05
   0.00000002  -0.00000146   0.00000001          0.00     -0.21      0.00
   0.00000036   0.00000001   0.00000191          0.05      0.00      0.28


     Writing output data file fepxas.save
 
     init_run     :    104.03s CPU    106.93s WALL (       2 calls)
     electrons    :   9224.33s CPU   9358.73s WALL (       2 calls)
     forces       :    103.17s CPU    104.92s WALL (       2 calls)
     stress       :    250.77s CPU    253.73s WALL (       2 calls)

     Called by init_run:
     wfcinit      :     25.95s CPU     26.32s WALL (       2 calls)
     potinit      :     27.53s CPU     29.40s WALL (       2 calls)

     Called by electrons:
     c_bands      :   3800.93s CPU   3861.09s WALL (     148 calls)
     sum_band     :   2482.11s CPU   2503.46s WALL (     148 calls)
     v_of_rho     :    205.02s CPU    205.90s WALL (     150 calls)
     newd         :   1397.64s CPU   1406.85s WALL (     150 calls)
     mix_rho      :    104.77s CPU    112.32s WALL (     148 calls)

     Called by c_bands:
     init_us_2    :     19.90s CPU     19.98s WALL (     298 calls)
     cegterg      :   3755.29s CPU   3815.43s WALL (     149 calls)

     Called by *egterg:
     h_psi        :   2591.86s CPU   2617.98s WALL (     990 calls)
     s_psi        :    314.04s CPU    314.09s WALL (     990 calls)
     g_psi        :     12.51s CPU     12.50s WALL (     839 calls)
     cdiaghg      :    131.39s CPU    131.75s WALL (     988 calls)

     Called by h_psi:
     add_vuspsi   :    315.30s CPU    315.35s WALL (     990 calls)

     General routines
     calbec       :    408.60s CPU    413.25s WALL (    1142 calls)
     fft          :    157.41s CPU    163.68s WALL (    4400 calls)
     ffts         :     11.11s CPU     11.24s WALL (     596 calls)
     fftw         :   2750.84s CPU   2789.26s WALL (  223452 calls)
     interpolate  :     37.43s CPU     37.66s WALL (     596 calls)
     davcio       :      0.00s CPU     12.63s WALL (     148 calls)
 
     Parallel routines
     fft_scatter  :    492.00s CPU    540.01s WALL (  228448 calls)
 
     PAW routines
     PAW_pot      :     65.83s CPU     79.09s WALL (     150 calls)
     PAW_ddot     :     48.94s CPU     55.91s WALL (    6092 calls)
     PAW_symme    :      0.03s CPU      0.05s WALL (     298 calls)
 
     PWSCF        :     2h41m CPU        2h43m WALL

 
   This run was terminated on:   8:51:29  30Oct2012            

=------------------------------------------------------------------------------=
   JOB DONE.
=------------------------------------------------------------------------------=
