
     Program PWSCF v.4.3.2      starts on 25Oct2012 at 21:39:18 

     This program is part of the open-source Quantum ESPRESSO suite
     for quantum simulation of materials; please cite
         "P. Giannozzi et al., J. Phys.:Condens. Matter 21 395502 (2009);
          URL http://www.quantum-espresso.org", 
     in publications or presentations arising from this work. More details at
     http://www.quantum-espresso.org/wiki/index.php/Citing_Quantum-ESPRESSO

     Parallel version (MPI), running on    12 processors
     R & G space division:  proc/pool =   12

     Current dimensions of program PWSCF are:
     Max number of different atomic species (ntypx) = 10
     Max number of k-points (npk) =  40000
     Max angular momentum in pseudopotentials (lmaxx) =  3
     Waiting for input...
     Reading input from stdin
               file c.UPF: wavefunction(s)  2P renormalized
               file f.UPF: wavefunction(s)  2S 2P renormalized
               file s.UPF: wavefunction(s)  3P renormalized
               file sb.UPF: wavefunction(s)  5S 5P renormalized

     Subspace diagonalization in iterative solution of the eigenvalue problem:
     a serial algorithm will be used

 
     Parallelization info
     --------------------
     sticks:   dense  smooth     PW     G-vecs:    dense   smooth      PW
     Min        2211    1474    388                91650    49883    6748
     Max        2212    1475    389                91651    49909    6749
     Sum       26543   17699   4657              1099807   598767   80987
 

     Title: 
     fepxas                                                                     


     bravais-lattice index     =            0
     lattice parameter (alat)  =       1.0000  a.u.
     unit-cell volume          =    9536.4494 (a.u.)^3
     number of atoms/cell      =           92
     number of atomic types    =            4
     number of electrons       =       480.00
     number of Kohn-Sham states=          240
     kinetic-energy cutoff     =      60.0000  Ry
     charge density cutoff     =     360.0000  Ry
     convergence threshold     =      1.0E-07
     mixing beta               =       0.7000
     number of iterations used =            8  plain     mixing
     Exchange-correlation      =  NOX  PW   PW86 PBC ( 0 417 4 0)
     EXX-fraction              =        0.00
     nstep                     =           50


     celldm(1)=   1.000000  celldm(2)=   0.000000  celldm(3)=   0.000000
     celldm(4)=   0.000000  celldm(5)=   0.000000  celldm(6)=   0.000000

     crystal axes: (cart. coord. in units of alat)
               a(1) = (  26.790880  -0.055199   0.146456 )  
               a(2) = (  -0.077535  34.592489  -0.007617 )  
               a(3) = (  -0.413840   0.001921  10.287845 )  

     reciprocal axes: (cart. coord. in units 2 pi/alat)
               b(1) = (  0.037318  0.000084  0.001501 )  
               b(2) = (  0.000060  0.028908 -0.000003 )  
               b(3) = ( -0.000531  0.000020  0.097181 )  


     PseudoPot. # 1 for  C read from file:
     ./c.UPF
     MD5 check sum: 59d3a4af416b94ce846c69cefa103580
     Pseudo is Projector augmented-wave + core cor, Zval =  4.0
     Generated using "atomic" code by A. Dal Corso  (Quantum ESPRESSO distribution)
     Shape of augmentation charge: BESSEL
     Using radial grid of 1073 points,  4 beta functions with: 
                l(1) =   0
                l(2) =   0
                l(3) =   1
                l(4) =   1
     Q(r) pseudized with 0 coefficients 


     PseudoPot. # 2 for  F read from file:
     ./f.UPF
     MD5 check sum: 8cc698429acbef515959d6d1ea0e1135
     Pseudo is Projector augmented-wave + core cor, Zval =  7.0
     Generated using "atomic" code by A. Dal Corso  (Quantum ESPRESSO distribution)
     Shape of augmentation charge: PSQ
     Using radial grid of 1105 points,  4 beta functions with: 
                l(1) =   0
                l(2) =   0
                l(3) =   1
                l(4) =   1
     Q(r) pseudized with 0 coefficients 


     PseudoPot. # 3 for  S read from file:
     ./s.UPF
     MD5 check sum: f30e8e98a43cb1acb672e04b450f70db
     Pseudo is Projector augmented-wave + core cor, Zval =  6.0
     Generated using "atomic" code by A. Dal Corso  (Quantum ESPRESSO distribution)
     Shape of augmentation charge: PSQ
     Using radial grid of 1151 points,  4 beta functions with: 
                l(1) =   0
                l(2) =   0
                l(3) =   1
                l(4) =   1
     Q(r) pseudized with 0 coefficients 


     PseudoPot. # 4 for Sb read from file:
     ./sb.UPF
     MD5 check sum: eafba98ab4c7605221bb994336090a42
     Pseudo is Projector augmented-wave + core cor, Zval =  5.0
     Generated using "atomic" code by A. Dal Corso  (Quantum ESPRESSO distribution)
     Shape of augmentation charge: PSQ
     Using radial grid of 1243 points,  4 beta functions with: 
                l(1) =   0
                l(2) =   0
                l(3) =   1
                l(4) =   1
     Q(r) pseudized with 0 coefficients 


     atomic species   valence    mass     pseudopotential
        c              4.00    12.01070      C( 1.00)
        f              7.00    18.99840      F( 1.00)
        s              6.00    32.06500      S( 1.00)
        sb             5.00   121.76000     Sb( 1.00)

      2 Sym.Ops. (with inversion)


   Cartesian axes

     site n.     atom                  positions (alat units)
         1           c   tau(   1) = (  12.0080284  29.5217071   9.1610455  )
         2           c   tau(   2) = (  27.4695741  12.2194959   6.5036554  )
         3           c   tau(   3) = (  14.2914771   5.0175036   1.2656394  )
         4           c   tau(   4) = (  -1.1700686  22.3197148   3.9230295  )
         5           c   tau(   5) = (  13.4435676  30.8289378   7.3746135  )
         6           c   tau(   6) = (  25.9996842  13.5362878   8.2519712  )
         7           c   tau(   7) = (  12.8559379   3.7102730   3.0520715  )
         8           c   tau(   8) = (   0.2998213  21.0029229   2.1747138  )
         9           c   tau(   9) = (  13.2513272  28.0152093  10.9167095  )
        10           c   tau(  10) = (  26.2567644  10.7347737   4.7087310  )
        11           c   tau(  11) = (  13.0481783   6.5240015  -0.4900245  )
        12           c   tau(  12) = (   0.0427411  23.8044370   5.7179539  )
        13           c   tau(  13) = (  22.1937951   4.2269651   9.0692573  )
        14           c   tau(  14) = (  17.3171510  21.5196840   6.4421191  )
        15           c   tau(  15) = (   4.1057104  30.3122457   1.3574276  )
        16           c   tau(  16) = (   8.9823545  13.0195267   3.9845658  )
        17           c   tau(  17) = (  20.6628688   2.8793327   7.4012370  )
        18           c   tau(  18) = (  18.8486917  20.1807060   8.1174734  )
        19           c   tau(  19) = (   5.6366367  31.6598781   3.0254479  )
        20           c   tau(  20) = (   7.4508138  14.3585047   2.3092115  )
        21           c   tau(  21) = (  16.0566147  30.8120158   7.4303120  )
        22           c   tau(  22) = (  23.3895733  13.5345242   8.1372120  )
        23           c   tau(  23) = (  10.2428908   3.7271949   2.9963729  )
        24           c   tau(  24) = (   2.9099322  21.0046865   2.2894730  )
        25           c   tau(  25) = (  23.4731339   2.9167680  10.9476988  )
        26           c   tau(  26) = (  16.0283463  20.2000004   4.5752029  )
        27           c   tau(  27) = (   2.8263716  31.6224428  -0.5210139  )
        28           c   tau(  28) = (  10.2711592  14.3392103   5.8514821  )
        29           c   tau(  29) = (  15.8826115  27.8586830  10.8654223  )
        30           c   tau(  30) = (  23.6213993  10.6090324   4.6832374  )
        31           c   tau(  31) = (  10.4168940   6.6805278  -0.4387374  )
        32           c   tau(  32) = (   2.6781062  23.9301783   5.7434475  )
        33           c   tau(  33) = (  20.4190521   0.2832518   7.5478009  )
        34           c   tau(  34) = (  19.0849279  17.5825355   7.9909360  )
        35           c   tau(  35) = (   5.8804534  34.2559589   2.8788840  )
        36           c   tau(  36) = (   7.2145776  16.9566752   2.4357489  )
        37           c   tau(  37) = (  17.3082715  29.3403461   9.2406591  )
        38           c   tau(  38) = (  22.1654464  12.0814353   6.2918895  )
        39           c   tau(  39) = (   8.9912340   5.1988647   1.1860259  )
        40           c   tau(  40) = (   4.1340591  22.4577754   4.1347954  )
        41           c   tau(  41) = (  23.2337942   0.2915560  11.0933460  )
        42           c   tau(  42) = (  16.2566305  17.5720962   4.4507885  )
        43           c   tau(  43) = (   3.0657113  34.2476547  -0.6666611  )
        44           c   tau(  44) = (  10.0428750  16.9671145   5.9758965  )
        45           c   tau(  45) = (  21.6386878  33.5361078   9.4262932  )
        46           c   tau(  46) = (  17.7828472  16.2359619   6.1133106  )
        47           c   tau(  47) = (   4.6608177   1.0031029   1.0003917  )
        48           c   tau(  48) = (   8.5166583  18.3032488   4.3133744  )
        49           sb  tau(  49) = (  18.2611592  32.8716437   4.5246075  )
        50           sb  tau(  50) = (  21.5725952  15.5871709   0.7344694  )
        51           sb  tau(  51) = (   8.0383463   1.6675670   5.9020774  )
        52           sb  tau(  52) = (   4.7269103  18.9520399   9.6922155  )
        53           sb  tau(  53) = (  21.5187195  29.3048584   9.5213752  )
        54           sb  tau(  54) = (  17.9478564  12.0101069   6.0143719  )
        55           sb  tau(  55) = (   4.7807860   5.2343523   0.9053097  )
        56           sb  tau(  56) = (   8.3516491  22.5291038   4.4123130  )
        57           f   tau(  57) = (   9.4584132  29.6290249   9.1875142  )
        58           f   tau(  58) = (  30.0191993  12.2877825   6.5738696  )
        59           f   tau(  59) = (  16.8410923   4.9101859   1.2391708  )
        60           f   tau(  60) = (  -3.7196938  22.2514282   3.8528153  )
        61           f   tau(  61) = (  12.1668783  32.0996328   5.5010555  )
        62           f   tau(  62) = (  27.2451795  14.7910907  10.1560594  )
        63           f   tau(  63) = (  14.1326272   2.4395779   4.9256294  )
        64           f   tau(  64) = (  -0.9456740  19.7481200   0.2706255  )
        65           f   tau(  65) = (  22.5039734   6.7405936   8.7907276  )
        66           f   tau(  66) = (  17.0114964  24.0358041   6.7040335  )
        67           f   tau(  67) = (   3.7955321  27.7986171   1.6359573  )
        68           f   tau(  68) = (   9.2880091  10.5034067   3.7226514  )
        69           f   tau(  69) = (  12.3084039  26.6888666   2.3445462  )
        70           f   tau(  70) = (  27.6469727   9.3895316   3.0364622  )
        71           f   tau(  71) = (  13.9911016   7.8503441   8.0821387  )
        72           f   tau(  72) = (  -1.3474672  25.1496792   7.3902227  )
        73           f   tau(  73) = (  19.4692057   4.2315593   5.5550330  )
        74           f   tau(  74) = (  20.0539762  21.5427714   9.9486330  )
        75           f   tau(  75) = (   6.8302999  30.3076514   4.8716519  )
        76           f   tau(  76) = (   6.2455293  12.9964394   0.4780519  )
        77           f   tau(  77) = (  25.4563571   4.1547360   2.2567469  )
        78           f   tau(  78) = (  14.4661908  21.4352037   2.9681103  )
        79           f   tau(  79) = (   0.8431484  30.3844748   8.1699380  )
        80           f   tau(  80) = (  11.8333147  13.1040070   7.4585746  )
        81           f   tau(  81) = (  17.3921104  26.1652698   2.1605089  )
        82           f   tau(  82) = (  22.5558821   8.9459722   3.0470797  )
        83           f   tau(  83) = (   8.9073951   8.3739409   8.2661760  )
        84           f   tau(  84) = (   3.7436234  25.5932386   7.3796052  )
        85           f   tau(  85) = (  25.0167038  33.7115544   2.5833313  )
        86           f   tau(  86) = (  14.8007250  16.3883433   2.6801086  )
        87           f   tau(  87) = (   1.2828017   0.8276564   7.8433536  )
        88           f   tau(  88) = (  11.4987805  18.1508674   7.7465764  )
        89           s   tau(  89) = (  21.5306094  29.4877648   4.5982285  )
        90           s   tau(  90) = (  18.3305848  12.1767544   0.6541560  )
        91           s   tau(  91) = (   4.7688961   5.0514459   5.8284565  )
        92           s   tau(  92) = (   7.9689207  22.3624564   9.7725290  )

     number of k points=     1
                       cart. coord. in units 2pi/alat
        k(    1) = (  -0.0188216  -0.0144910   0.0235461), wk =   2.0000000

     Dense  grid:  1099807 G-vectors     FFT dimensions: ( 162, 216,  64)

     Smooth grid:   598767 G-vectors     FFT dimensions: ( 135, 180,  54)

     Largest allocated arrays     est. size (Mb)     dimensions
        Kohn-Sham Wavefunctions        22.92 Mb     (   6260,  240)
        NL pseudopotentials            70.30 Mb     (   6260,  736)
        Each V/rho on FFT grid          3.20 Mb     ( 209952)
        Each G-vector array             0.70 Mb     (  91651)
        G-vector shells                 0.70 Mb     (  91651)
     Largest temporary arrays     est. size (Mb)     dimensions
        Auxiliary wavefunctions        91.70 Mb     (   6260,  960)
        Each subspace H/S matrix       14.06 Mb     ( 960, 960)
        Each <psi_i|beta_j> matrix      2.70 Mb     (    736,  240)
        Arrays for rho mixing          25.63 Mb     ( 209952,   8)

     Check: negative/imaginary core charge=   -0.000032    0.000000

     Initial potential from superposition of free atoms

     starting charge  479.99301, renormalised to  480.00000
     Starting wfc are  368 atomic wfcs
     Checking if some PAW data can be deallocated... 

     total cpu time spent up to now is       47.6 secs

     per-process dynamical memory:   209.0 Mb

     Self-consistent Calculation

     iteration #  1     ecut=    60.00 Ry     beta=0.70
     Davidson diagonalization with overlap
     ethr =  1.00E-02,  avg # of iterations =  4.0

     total cpu time spent up to now is      108.4 secs

     total energy              =   -5851.65358597 Ry
     Harris-Foulkes estimate   =   -5858.29998350 Ry
     estimated scf accuracy    <    3267.37235769 Ry

     iteration #  2     ecut=    60.00 Ry     beta=0.70
     Davidson diagonalization with overlap
     ethr =  1.00E-02,  avg # of iterations =  1.0

     total cpu time spent up to now is      155.7 secs

     total energy              =   -5852.47654845 Ry
     Harris-Foulkes estimate   =   -5852.84241454 Ry
     estimated scf accuracy    <     317.25499433 Ry

     iteration #  3     ecut=    60.00 Ry     beta=0.70
     Davidson diagonalization with overlap
     ethr =  1.00E-02,  avg # of iterations =  4.0

     total cpu time spent up to now is      209.5 secs

     total energy              =   -5858.93856736 Ry
     Harris-Foulkes estimate   =   -5859.42158394 Ry
     estimated scf accuracy    <      22.12580203 Ry

     iteration #  4     ecut=    60.00 Ry     beta=0.70
     Davidson diagonalization with overlap
     ethr =  4.61E-03,  avg # of iterations =  1.0

     total cpu time spent up to now is      256.8 secs

     total energy              =   -5857.16653904 Ry
     Harris-Foulkes estimate   =   -5859.15601379 Ry
     estimated scf accuracy    <      21.51696840 Ry

     iteration #  5     ecut=    60.00 Ry     beta=0.70
     Davidson diagonalization with overlap
     ethr =  4.48E-03,  avg # of iterations =  1.0

     negative rho (up, down):  0.461E-02 0.000E+00

     total cpu time spent up to now is      304.2 secs

     total energy              =   -5847.55957968 Ry
     Harris-Foulkes estimate   =   -5857.36508521 Ry
     estimated scf accuracy    <      17.72464164 Ry

     iteration #  6     ecut=    60.00 Ry     beta=0.70
     Davidson diagonalization with overlap
     ethr =  3.69E-03,  avg # of iterations =  5.0

     negative rho (up, down):  0.274E-02 0.000E+00

     total cpu time spent up to now is      382.0 secs

     total energy              =   -5866.34298378 Ry
     Harris-Foulkes estimate   =   -5869.20917917 Ry
     estimated scf accuracy    <      78.18613921 Ry

     iteration #  7     ecut=    60.00 Ry     beta=0.70
     Davidson diagonalization with overlap
     ethr =  3.69E-03,  avg # of iterations =  1.0

     total cpu time spent up to now is      429.6 secs

     total energy              =   -5841.98482986 Ry
     Harris-Foulkes estimate   =   -5866.41385430 Ry
     estimated scf accuracy    <      72.13747901 Ry

     iteration #  8     ecut=    60.00 Ry     beta=0.70
     Davidson diagonalization with overlap
     ethr =  3.69E-03,  avg # of iterations =  5.0

     total cpu time spent up to now is      497.1 secs

     total energy              =   -5855.12451128 Ry
     Harris-Foulkes estimate   =   -5855.83229440 Ry
     estimated scf accuracy    <       3.33834991 Ry

     iteration #  9     ecut=    60.00 Ry     beta=0.70
     Davidson diagonalization with overlap
     ethr =  6.95E-04,  avg # of iterations =  1.0

     total cpu time spent up to now is      544.8 secs

     total energy              =   -5854.55223232 Ry
     Harris-Foulkes estimate   =   -5855.18372334 Ry
     estimated scf accuracy    <       2.02037630 Ry

     iteration # 10     ecut=    60.00 Ry     beta=0.70
     Davidson diagonalization with overlap
     ethr =  4.21E-04,  avg # of iterations =  5.0

     total cpu time spent up to now is      611.2 secs

     total energy              =   -5855.86221597 Ry
     Harris-Foulkes estimate   =   -5855.70434187 Ry
     estimated scf accuracy    <       2.01368805 Ry

     iteration # 11     ecut=    60.00 Ry     beta=0.70
     Davidson diagonalization with overlap
     ethr =  4.20E-04,  avg # of iterations =  1.0

     total cpu time spent up to now is      658.9 secs

     total energy              =   -5856.08644076 Ry
     Harris-Foulkes estimate   =   -5855.86811273 Ry
     estimated scf accuracy    <       2.31509007 Ry

     iteration # 12     ecut=    60.00 Ry     beta=0.70
     Davidson diagonalization with overlap
     ethr =  4.20E-04,  avg # of iterations =  1.0

     total cpu time spent up to now is      706.7 secs

     total energy              =   -5855.15220906 Ry
     Harris-Foulkes estimate   =   -5856.11045162 Ry
     estimated scf accuracy    <       2.96282145 Ry

     iteration # 13     ecut=    60.00 Ry     beta=0.70
     Davidson diagonalization with overlap
     ethr =  4.20E-04,  avg # of iterations =  1.0

     total cpu time spent up to now is      754.4 secs

     total energy              =   -5855.64826652 Ry
     Harris-Foulkes estimate   =   -5855.22244839 Ry
     estimated scf accuracy    <       1.40939978 Ry

     iteration # 14     ecut=    60.00 Ry     beta=0.70
     Davidson diagonalization with overlap
     ethr =  2.94E-04,  avg # of iterations =  6.0

     total cpu time spent up to now is      807.2 secs

     total energy              =   -5855.65885870 Ry
     Harris-Foulkes estimate   =   -5855.75453954 Ry
     estimated scf accuracy    <       2.57035250 Ry

     iteration # 15     ecut=    60.00 Ry     beta=0.70
     Davidson diagonalization with overlap
     ethr =  2.94E-04,  avg # of iterations =  1.0

     total cpu time spent up to now is      854.9 secs

     total energy              =   -5855.01439847 Ry
     Harris-Foulkes estimate   =   -5855.67917075 Ry
     estimated scf accuracy    <       2.36957328 Ry

     iteration # 16     ecut=    60.00 Ry     beta=0.70
     Davidson diagonalization with overlap
     ethr =  2.94E-04,  avg # of iterations =  5.0

     total cpu time spent up to now is      911.6 secs

     total energy              =   -5855.30277500 Ry
     Harris-Foulkes estimate   =   -5855.32849711 Ry
     estimated scf accuracy    <       0.13354838 Ry

     iteration # 17     ecut=    60.00 Ry     beta=0.70
     Davidson diagonalization with overlap
     ethr =  2.78E-05,  avg # of iterations =  6.0

     total cpu time spent up to now is      979.0 secs

     total energy              =   -5855.33969603 Ry
     Harris-Foulkes estimate   =   -5855.35178859 Ry
     estimated scf accuracy    <       0.04728850 Ry

     iteration # 18     ecut=    60.00 Ry     beta=0.70
     Davidson diagonalization with overlap
     ethr =  9.85E-06,  avg # of iterations =  6.0

     total cpu time spent up to now is     1031.9 secs

     total energy              =   -5855.33734506 Ry
     Harris-Foulkes estimate   =   -5855.34344420 Ry
     estimated scf accuracy    <       0.01281797 Ry

     iteration # 19     ecut=    60.00 Ry     beta=0.70
     Davidson diagonalization with overlap
     ethr =  2.67E-06,  avg # of iterations =  5.0

     total cpu time spent up to now is     1110.1 secs

     total energy              =   -5855.34447292 Ry
     Harris-Foulkes estimate   =   -5855.35355618 Ry
     estimated scf accuracy    <       0.04399940 Ry

     iteration # 20     ecut=    60.00 Ry     beta=0.70
     Davidson diagonalization with overlap
     ethr =  2.67E-06,  avg # of iterations =  1.0

     total cpu time spent up to now is     1157.8 secs

     total energy              =   -5855.33909320 Ry
     Harris-Foulkes estimate   =   -5855.34492481 Ry
     estimated scf accuracy    <       0.02349521 Ry

     iteration # 21     ecut=    60.00 Ry     beta=0.70
     Davidson diagonalization with overlap
     ethr =  2.67E-06,  avg # of iterations =  5.0

     total cpu time spent up to now is     1228.1 secs

     total energy              =   -5855.34523502 Ry
     Harris-Foulkes estimate   =   -5855.34600295 Ry
     estimated scf accuracy    <       0.00391857 Ry

     iteration # 22     ecut=    60.00 Ry     beta=0.70
     Davidson diagonalization with overlap
     ethr =  8.16E-07,  avg # of iterations =  1.0

     total cpu time spent up to now is     1275.8 secs

     total energy              =   -5855.34395808 Ry
     Harris-Foulkes estimate   =   -5855.34527419 Ry
     estimated scf accuracy    <       0.00248842 Ry

     iteration # 23     ecut=    60.00 Ry     beta=0.70
     Davidson diagonalization with overlap
     ethr =  5.18E-07,  avg # of iterations =  5.0

     total cpu time spent up to now is     1349.2 secs

     total energy              =   -5855.34521264 Ry
     Harris-Foulkes estimate   =   -5855.34697059 Ry
     estimated scf accuracy    <       0.00966592 Ry

     iteration # 24     ecut=    60.00 Ry     beta=0.70
     Davidson diagonalization with overlap
     ethr =  5.18E-07,  avg # of iterations =  1.0

     total cpu time spent up to now is     1397.0 secs

     total energy              =   -5855.34295485 Ry
     Harris-Foulkes estimate   =   -5855.34526659 Ry
     estimated scf accuracy    <       0.00644797 Ry

     iteration # 25     ecut=    60.00 Ry     beta=0.70
     Davidson diagonalization with overlap
     ethr =  5.18E-07,  avg # of iterations =  5.0

     total cpu time spent up to now is     1468.5 secs

     total energy              =   -5855.34435209 Ry
     Harris-Foulkes estimate   =   -5855.34605652 Ry
     estimated scf accuracy    <       0.00429576 Ry

     iteration # 26     ecut=    60.00 Ry     beta=0.70
     Davidson diagonalization with overlap
     ethr =  5.18E-07,  avg # of iterations =  6.0

     total cpu time spent up to now is     1529.3 secs

     total energy              =   -5855.34532095 Ry
     Harris-Foulkes estimate   =   -5855.34550222 Ry
     estimated scf accuracy    <       0.00101876 Ry

     iteration # 27     ecut=    60.00 Ry     beta=0.70
     Davidson diagonalization with overlap
     ethr =  2.12E-07,  avg # of iterations =  1.0

     total cpu time spent up to now is     1577.1 secs

     total energy              =   -5855.34515468 Ry
     Harris-Foulkes estimate   =   -5855.34533898 Ry
     estimated scf accuracy    <       0.00069235 Ry

     iteration # 28     ecut=    60.00 Ry     beta=0.70
     Davidson diagonalization with overlap
     ethr =  1.44E-07,  avg # of iterations =  6.0

     total cpu time spent up to now is     1634.1 secs

     total energy              =   -5855.34532541 Ry
     Harris-Foulkes estimate   =   -5855.34533629 Ry
     estimated scf accuracy    <       0.00004802 Ry

     iteration # 29     ecut=    60.00 Ry     beta=0.70
     Davidson diagonalization with overlap
     ethr =  1.00E-08,  avg # of iterations =  5.0

     total cpu time spent up to now is     1705.1 secs

     total energy              =   -5855.34534891 Ry
     Harris-Foulkes estimate   =   -5855.34534829 Ry
     estimated scf accuracy    <       0.00002791 Ry

     iteration # 30     ecut=    60.00 Ry     beta=0.70
     Davidson diagonalization with overlap
     ethr =  5.81E-09,  avg # of iterations =  2.0

     total cpu time spent up to now is     1753.4 secs

     total energy              =   -5855.34534473 Ry
     Harris-Foulkes estimate   =   -5855.34534938 Ry
     estimated scf accuracy    <       0.00002751 Ry

     iteration # 31     ecut=    60.00 Ry     beta=0.70
     Davidson diagonalization with overlap
     ethr =  5.73E-09,  avg # of iterations =  4.0

     total cpu time spent up to now is     1802.8 secs

     total energy              =   -5855.34534257 Ry
     Harris-Foulkes estimate   =   -5855.34534554 Ry
     estimated scf accuracy    <       0.00001756 Ry

     iteration # 32     ecut=    60.00 Ry     beta=0.70
     Davidson diagonalization with overlap
     ethr =  3.66E-09,  avg # of iterations =  4.0

     total cpu time spent up to now is     1852.9 secs

     total energy              =   -5855.34534031 Ry
     Harris-Foulkes estimate   =   -5855.34534330 Ry
     estimated scf accuracy    <       0.00001027 Ry

     iteration # 33     ecut=    60.00 Ry     beta=0.70
     Davidson diagonalization with overlap
     ethr =  2.14E-09,  avg # of iterations =  5.0

     total cpu time spent up to now is     1916.2 secs

     total energy              =   -5855.34534391 Ry
     Harris-Foulkes estimate   =   -5855.34534466 Ry
     estimated scf accuracy    <       0.00000434 Ry

     iteration # 34     ecut=    60.00 Ry     beta=0.70
     Davidson diagonalization with overlap
     ethr =  9.04E-10,  avg # of iterations =  1.0

     total cpu time spent up to now is     1964.0 secs

     total energy              =   -5855.34534299 Ry
     Harris-Foulkes estimate   =   -5855.34534397 Ry
     estimated scf accuracy    <       0.00000279 Ry

     iteration # 35     ecut=    60.00 Ry     beta=0.70
     Davidson diagonalization with overlap
     ethr =  5.81E-10,  avg # of iterations =  5.0

     total cpu time spent up to now is     2029.1 secs

     total energy              =   -5855.34534398 Ry
     Harris-Foulkes estimate   =   -5855.34534434 Ry
     estimated scf accuracy    <       0.00000255 Ry

     iteration # 36     ecut=    60.00 Ry     beta=0.70
     Davidson diagonalization with overlap
     ethr =  5.32E-10,  avg # of iterations =  1.0

     total cpu time spent up to now is     2076.8 secs

     total energy              =   -5855.34534360 Ry
     Harris-Foulkes estimate   =   -5855.34534399 Ry
     estimated scf accuracy    <       0.00000184 Ry

     iteration # 37     ecut=    60.00 Ry     beta=0.70
     Davidson diagonalization with overlap
     ethr =  3.84E-10,  avg # of iterations =  5.0

     total cpu time spent up to now is     2133.5 secs

     total energy              =   -5855.34534395 Ry
     Harris-Foulkes estimate   =   -5855.34534407 Ry
     estimated scf accuracy    <       0.00000092 Ry

     iteration # 38     ecut=    60.00 Ry     beta=0.70
     Davidson diagonalization with overlap
     ethr =  1.91E-10,  avg # of iterations =  2.0

     total cpu time spent up to now is     2181.9 secs

     total energy              =   -5855.34534384 Ry
     Harris-Foulkes estimate   =   -5855.34534398 Ry
     estimated scf accuracy    <       0.00000068 Ry

     iteration # 39     ecut=    60.00 Ry     beta=0.70
     Davidson diagonalization with overlap
     ethr =  1.42E-10,  avg # of iterations =  6.0

     total cpu time spent up to now is     2234.5 secs

     total energy              =   -5855.34534388 Ry
     Harris-Foulkes estimate   =   -5855.34534390 Ry
     estimated scf accuracy    <       0.00000016 Ry

     iteration # 40     ecut=    60.00 Ry     beta=0.70
     Davidson diagonalization with overlap
     ethr =  3.38E-11,  avg # of iterations =  6.0

     total cpu time spent up to now is     2291.0 secs

     End of self-consistent calculation

          k =-0.0188-0.0145 0.0235 ( 74832 PWs)   bands (ev):

   -23.8587 -23.8559 -23.8528 -23.8508 -23.7532 -23.7470 -23.7406 -23.7354
   -23.5883 -23.5811 -23.5704 -23.5648 -23.4839 -23.4767 -23.4697 -23.4637
   -23.3432 -23.3372 -23.2944 -23.2921 -23.1693 -23.1677 -23.1626 -23.1606
   -23.1360 -23.1309 -23.1233 -23.1204 -23.0799 -23.0755 -23.0740 -23.0689
   -14.4970 -14.4966 -14.4947 -14.4944 -14.3873 -14.3848 -14.3663 -14.3652
   -11.7116 -11.7115 -11.6939 -11.6936 -11.4189 -11.4177 -11.4082 -11.4063
   -11.3550 -11.3539 -11.3467 -11.3462 -11.2961 -11.2939 -11.2763 -11.2725
    -9.7609  -9.7574  -9.7389  -9.7360  -8.6615  -8.6605  -8.6252  -8.6247
    -8.3899  -8.3881  -8.3622  -8.3609  -8.3175  -8.3166  -8.3067  -8.3058
    -8.2326  -8.2313  -8.2070  -8.2062  -6.9560  -6.9546  -6.9148  -6.9126
    -6.7160  -6.7134  -6.6740  -6.6686  -6.5686  -6.5634  -6.4939  -6.4927
    -6.2410  -6.2407  -6.2252  -6.2242  -6.0909  -6.0908  -6.0561  -6.0530
    -6.0392  -6.0374  -5.9397  -5.9387  -5.6767  -5.6750  -5.6614  -5.6597
    -5.5565  -5.5551  -5.4839  -5.4815  -5.4164  -5.4117  -5.3715  -5.3699
    -5.2058  -5.2021  -5.1334  -5.1306  -4.8846  -4.8831  -4.8254  -4.8223
    -4.7832  -4.7806  -4.6284  -4.6244  -4.5168  -4.5128  -4.4524  -4.4506
    -4.3800  -4.3785  -4.3613  -4.3605  -4.0077  -4.0058  -3.9674  -3.9629
    -3.8737  -3.8677  -3.7234  -3.7217  -3.5529  -3.5487  -3.5032  -3.5000
    -3.4035  -3.3965  -3.3468  -3.3461  -3.2522  -3.2516  -3.2232  -3.2225
    -3.1196  -3.1116  -3.0929  -3.0848  -2.6792  -2.6783  -2.6209  -2.6170
    -2.5997  -2.5971  -2.5757  -2.5749  -2.4849  -2.4785  -2.4594  -2.4532
    -2.3677  -2.3665  -2.3565  -2.3558  -2.2328  -2.2314  -2.1759  -2.1732
    -2.1038  -2.1004  -2.0724  -2.0692  -1.5685  -1.5672  -1.4990  -1.4989
    -1.4410  -1.4399  -1.4013  -1.3997  -1.3714  -1.3699  -1.3304  -1.3282
    -1.2797  -1.2727  -1.2183  -1.2153  -0.9014  -0.8976  -0.7912  -0.7871
    -0.5755  -0.5746  -0.5439  -0.5425  -0.2963  -0.2852  -0.2264  -0.2129
     0.1358   0.1406   0.1596   0.1654   0.3816   0.3838   0.4048   0.4068
     1.1043   1.1061   1.1421   1.1437   1.1895   1.1899   1.2081   1.2084
     1.3776   1.3824   1.4197   1.4249   1.4587   1.4624   1.5471   1.5579
     1.7859   1.7867   1.8172   1.8195   1.9581   1.9659   1.9761   1.9803
 TIME (initial):        0.0
* Atoms contributing density to the main cell
  Number of atoms:   28980
 
 TIME (set up the environment):        0.1
 DOCALC: T F T T
 ESAVE:       0.000000000000       0.000000000000       0.000000000000
* XDM: using PAW all-electron density reconstruction? T
 TIME (promolecular grid):       54.7
 TIME (calculation of b grid):       55.2
 TIME (calculation of volumes and moments):      368.3
 
+ Volume and moments
# All results in atomic units.
# i              V                  Vfree                 M1                  M2                  M3
  1        33.6466149639        39.0349749523         3.9103187579        54.9865534436      1105.1864837384
  2        33.6250518873        39.0349749523         3.9067850593        54.9187837291      1103.6693050449
  3        33.6466149639        39.0349749523         3.9103187579        54.9865534436      1105.1864837384
  4        33.6250518873        39.0349749523         3.9067850593        54.9187837291      1103.6693050449
  5        33.8570508803        39.0349749523         3.8978645784        54.3300252804      1074.9316079443
  6        33.8423962648        39.0349749523         3.8929188211        54.2360278960      1072.9558634637
  7        33.8570508803        39.0349749523         3.8978645784        54.3300252804      1074.9316079443
  8        33.8423962648        39.0349749523         3.8929188211        54.2360278960      1072.9558634637
  9        33.7781395565        39.0349749523         3.8757485518        54.3857544867      1095.7734918297
 10        33.7670199602        39.0349749523         3.8764215517        54.3928698678      1095.8252585463
 11        33.7781395565        39.0349749523         3.8757485518        54.3857544867      1095.7734918297
 12        33.7670199602        39.0349749523         3.8764215517        54.3928698678      1095.8252585463
 13        33.7368538130        39.0349749523         3.8591924446        54.1689504922      1094.6481232305
 14        33.7577629949        39.0349749523         3.8581091976        54.1218438396      1092.9461564144
 15        33.7368538130        39.0349749523         3.8591924446        54.1689504922      1094.6481232305
 16        33.7577629949        39.0349749523         3.8581091976        54.1218438396      1092.9461564144
 17        33.9557593980        39.0349749523         3.8680851659        54.0993380947      1077.1117772857
 18        33.9624342517        39.0349749523         3.8684608530        54.0862471632      1076.0647259211
 19        33.9557593980        39.0349749523         3.8680851659        54.0993380947      1077.1117772857
 20        33.9624342517        39.0349749523         3.8684608530        54.0862471632      1076.0647259211
 21        34.1931807289        39.0349749523         3.9334786111        52.2716427286      1006.0257644926
 22        34.1868332673        39.0349749523         3.9310179474        52.2309942873      1005.1404684945
 23        34.1931807289        39.0349749523         3.9334786111        52.2716427286      1006.0257644926
 24        34.1868332673        39.0349749523         3.9310179474        52.2309942873      1005.1404684945
 25        33.8711260357        39.0349749523         3.8447290414        53.7095518015      1081.2504152705
 26        33.8804803156        39.0349749523         3.8442086994        53.6655924988      1079.5103271336
 27        33.8711260357        39.0349749523         3.8447290414        53.7095518015      1081.2504152705
 28        33.8804803156        39.0349749523         3.8442086994        53.6655924988      1079.5103271336
 29        34.2551368114        39.0349749523         3.7995609002        53.2333025269      1064.7733951094
 30        34.2517428173        39.0349749523         3.8042237231        53.2938076539      1065.5572139490
 31        34.2551368114        39.0349749523         3.7995609002        53.2333025269      1064.7733951094
 32        34.2517428173        39.0349749523         3.8042237231        53.2938076539      1065.5572139490
 33        34.2159041342        39.0349749523         3.9264108934        52.2253766863      1006.4666355765
 34        34.2176940216        39.0349749523         3.9288792539        52.2359987016      1005.6701379286
 35        34.2159041342        39.0349749523         3.9264108934        52.2253766863      1006.4666355764
 36        34.2176940216        39.0349749523         3.9288792539        52.2359987016      1005.6701379286
 37        34.5057843515        39.0349749523         3.8760059330        51.7046344961      1003.8365938462
 38        34.5036851605        39.0349749523         3.8830375316        51.7743059638      1004.1461730716
 39        34.5057843515        39.0349749523         3.8760059330        51.7046344961      1003.8365938462
 40        34.5036851605        39.0349749523         3.8830375316        51.7743059638      1004.1461730716
 41        34.2401073994        39.0349749523         3.7961636745        52.8501576072      1051.6286926482
 42        34.2435120162        39.0349749523         3.7972212894        52.8439111991      1050.6496023838
 43        34.2401073994        39.0349749523         3.7961636745        52.8501576072      1051.6286926482
 44        34.2435120162        39.0349749523         3.7972212894        52.8439111991      1050.6496023838
 45        34.5007587445        39.0349749523         3.9074226488        51.8802377161       998.6638078708
 46        34.5057414183        39.0349749523         3.9053395312        51.8580666699       998.0060806761
 47        34.5007587445        39.0349749523         3.9074226488        51.8802377161       998.6638078708
 48        34.5057414183        39.0349749523         3.9053395312        51.8580666699       998.0060806761
 49       138.7085553167       174.2312296757         9.0355653927       229.5076034481      6421.3177908490
 50       138.7108614346       174.2312296757         9.0206836484       229.1394604139      6413.5800656086
 51       138.7085553167       174.2312296757         9.0355653927       229.5076034481      6421.3177908490
 52       138.7108614346       174.2312296757         9.0206836484       229.1394604139      6413.5800656087
 53       139.9602390414       174.2312296757         8.9874201059       234.2415905048      6702.7219286990
 54       139.9258644490       174.2312296757         8.9972837609       234.3171798563      6698.3653128777
 55       139.9602390414       174.2312296757         8.9874201059       234.2415905048      6702.7219286990
 56       139.9258644490       174.2312296757         8.9972837609       234.3171798563      6698.3653128778
 57        17.7318834564        19.2806797260         4.6247910694        28.5881442531       245.7272284987
 58        17.7272658765        19.2806797260         4.6227501573        28.5661990088       245.4786180832
 59        17.7318834564        19.2806797260         4.6247910694        28.5881442531       245.7272284987
 60        17.7272658765        19.2806797260         4.6227501573        28.5661990088       245.4786180832
 61        17.7524326903        19.2806797260         4.5968079194        28.1971695809       238.3787523090
 62        17.7513326393        19.2806797260         4.5938944614        28.1716002895       238.0686739803
 63        17.7524326903        19.2806797260         4.5968079194        28.1971695809       238.3787523090
 64        17.7513326393        19.2806797260         4.5938944614        28.1716002895       238.0686739803
 65        17.6760634575        19.2806797260         4.5803343689        28.1562985237       240.7950340574
 66        17.6833708573        19.2806797260         4.5788377679        28.1471980189       240.7452444407
 67        17.6760634575        19.2806797260         4.5803343689        28.1562985237       240.7950340574
 68        17.6833708573        19.2806797260         4.5788377679        28.1471980189       240.7452444407
 69        17.7775015500        19.2806797260         4.6250421972        28.6126544441       245.5995642515
 70        17.7748610339        19.2806797260         4.6253848015        28.6195565943       245.6384366989
 71        17.7775015500        19.2806797260         4.6250421972        28.6126544441       245.5995642515
 72        17.7748610339        19.2806797260         4.6253848015        28.6195565943       245.6384366989
 73        17.9098888712        19.2806797260         4.6477175832        28.7357124310       244.7210675390
 74        17.9102080150        19.2806797260         4.6484447392        28.7407179014       244.7733145094
 75        17.9098888712        19.2806797260         4.6477175832        28.7357124310       244.7210675390
 76        17.9102080150        19.2806797260         4.6484447392        28.7407179014       244.7733145094
 77        17.7432541165        19.2806797260         4.6171341278        28.4499820547       242.9107583791
 78        17.7524276596        19.2806797260         4.6188132411        28.4613068352       243.0386639191
 79        17.7432541165        19.2806797260         4.6171341278        28.4499820547       242.9107583791
 80        17.7524276596        19.2806797260         4.6188132411        28.4613068352       243.0386639191
 81        17.9751857123        19.2806797260         4.5970143987        28.4938762609       244.4058290417
 82        17.9797833505        19.2806797260         4.6034296236        28.5403229569       244.7414565941
 83        17.9751857123        19.2806797260         4.5970143987        28.4938762609       244.4058290417
 84        17.9797833505        19.2806797260         4.6034296236        28.5403229569       244.7414565941
 85        17.8769352159        19.2806797260         4.6140936002        28.4733814499       241.8691036542
 86        17.8886442082        19.2806797260         4.6200560998        28.5162806653       242.2647924946
 87        17.8769352159        19.2806797260         4.6140936002        28.4733814499       241.8691036542
 88        17.8886442082        19.2806797260         4.6200560998        28.5162806653       242.2647924946
 89        71.9015847326        77.4908459489         7.6563636971       124.5905824402      2091.1523697331
 90        71.9243990356        77.4908459489         7.6540487338       124.5706223683      2091.5748380075
 91        71.9015847326        77.4908459489         7.6563636971       124.5905824402      2091.1523697332
 92        71.9243990356        77.4908459489         7.6540487338       124.5706223683      2091.5748380075
 
+ Dispersion coefficients
# All results in atomic units.
# i   j              C6                  C8                  C10                   Rc                  Rvdw
  1   1        20.0160747183       844.3927697699     39252.1269681571         6.6558925798         7.2701702760
  2   1        20.0006164113       843.6018165613     39211.0381951189         6.6554368888         7.2699859490
  2   2        19.9851703883       842.8115959981     39169.9919508205         6.6549811812         7.2698016153
  3   1        20.0160747183       844.3927697699     39252.1269681571         6.6558925798         7.2701702760
  3   2        20.0006164113       843.6018165613     39211.0381951188         6.6554368888         7.2699859490
  3   3        20.0160747183       844.3927697699     39252.1269681570         6.6558925798         7.2701702760
  4   1        20.0006164113       843.6018165613     39211.0381951188         6.6554368888         7.2699859490
  4   2        19.9851703883       842.8115959981     39169.9919508205         6.6549811812         7.2698016153
  4   3        20.0006164113       843.6018165613     39211.0381951188         6.6554368888         7.2699859490
  4   4        19.9851703883       842.8115959981     39169.9919508204         6.6549811812         7.2698016153
  5   1        20.0463476586       841.9561749327     38890.2828526195         6.6379391911         7.2629081303
  5   2        20.0308783856       841.1674148107     38849.5293924734         6.6374818074         7.2627231186
  5   3        20.0463476586       841.9561749327     38890.2828526195         6.6379391911         7.2629081303
  5   4        20.0308783856       841.1674148107     38849.5293924733         6.6374818074         7.2627231186
  5   5        20.0771122300       839.5289213457     38529.3961957164         6.6198952423         7.2556093530
  6   1        20.0292484763       841.0445879808     38843.1990060238         6.6373476828         7.2626688652
  6   2        20.0137934994       840.2566961375     38802.4956817026         6.6368902852         7.2624838478
  6   3        20.0292484763       841.0445879808     38843.1990060237         6.6373476828         7.2626688652
  6   4        20.0137934994       840.2566961375     38802.4956817026         6.6368902852         7.2624838478
  6   5        20.0600263534       838.6207612741     38482.7416836248         6.6193016933         7.2553692624
  6   6        20.0429585251       837.7136855261     38436.1488907523         6.6187081375         7.2551291691
  7   1        20.0463476586       841.9561749328     38890.2828526199         6.6379391911         7.2629081303
  7   2        20.0308783856       841.1674148107     38849.5293924738         6.6374818074         7.2627231186
  7   3        20.0463476586       841.9561749327     38890.2828526199         6.6379391911         7.2629081303
  7   4        20.0308783856       841.1674148107     38849.5293924737         6.6374818074         7.2627231186
  7   5        20.0771122300       839.5289213457     38529.3961957168         6.6198952423         7.2556093530
  7   6        20.0600263534       838.6207612741     38482.7416836252         6.6193016933         7.2553692624
  7   7        20.0771122300       839.5289213457     38529.3961957172         6.6198952423         7.2556093530
  8   1        20.0292484763       841.0445879808     38843.1990060233         6.6373476828         7.2626688652
  8   2        20.0137934994       840.2566961375     38802.4956817022         6.6368902852         7.2624838478
  8   3        20.0292484763       841.0445879808     38843.1990060233         6.6373476828         7.2626688652
  8   4        20.0137934994       840.2566961375     38802.4956817021         6.6368902852         7.2624838478
  8   5        20.0600263534       838.6207612741     38482.7416836243         6.6193016933         7.2553692624
  8   6        20.0429585251       837.7136855261     38436.1488907518         6.6187081375         7.2551291691
  8   7        20.0600263534       838.6207612741     38482.7416836247         6.6193016933         7.2553692624
  8   8        20.0429585251       837.7136855261     38436.1488907514         6.6187081375         7.2551291691
  9   1        19.9659019840       841.3900683682     39122.5322907001         6.6546014771         7.2696480250
  9   2        19.9504991922       840.6024886012     39081.6149291460         6.6541460295         7.2694637964
  9   3        19.9659019840       841.3900683682     39122.5322907000         6.6546014771         7.2696480250
  9   4        19.9504991922       840.6024886012     39081.6149291460         6.6541460295         7.2694637964
  9   5        19.9967012463       838.9835071074     38763.0222377780         6.6366498903         7.2623866081
  9   6        19.9796978288       838.0771754564     38716.2008889473         6.6360587609         7.2621474962
  9   7        19.9967012463       838.9835071074     38763.0222377784         6.6366498903         7.2623866081
  9   8        19.9796978288       838.0771754564     38716.2008889469         6.6360587609         7.2621474962
  9   9        19.9166684162       838.4313565659     38995.0064715307         6.6533132601         7.2691269412
 10   1        19.9643799415       841.3079400589     39117.4149886686         6.6545103610         7.2696111685
 10   2        19.9489776643       840.5204064150     39076.5013341254         6.6540549043         7.2694269363
 10   3        19.9643799415       841.3079400589     39117.4149886686         6.6545103610         7.2696111685
 10   4        19.9489776643       840.5204064150     39076.5013341254         6.6540549043         7.2694269363
 10   5        19.9951531643       838.9005405212     38757.8893554442         6.6365583059         7.2623495622
 10   6        19.9781489616       837.9942062048     38711.0696966219         6.6359671654         7.2621104459
 10   7        19.9951531643       838.9005405212     38757.8893554446         6.6365583059         7.2623495622
 10   8        19.9781489616       837.9942062048     38711.0696966215         6.6359671654         7.2621104459
 10   9        19.9151181261       838.3481510530     38989.8429908423         6.6532221495         7.2690900870
 10  10        19.9135692157       838.2650064099     38984.6825725735         6.6531310366         7.2690532318
 11   1        19.9659019840       841.3900683682     39122.5322907002         6.6546014771         7.2696480250
 11   2        19.9504991922       840.6024886012     39081.6149291461         6.6541460295         7.2694637964
 11   3        19.9659019840       841.3900683682     39122.5322907002         6.6546014771         7.2696480250
 11   4        19.9504991922       840.6024886012     39081.6149291461         6.6541460295         7.2694637964
 11   5        19.9967012463       838.9835071074     38763.0222377781         6.6366498903         7.2623866081
 11   6        19.9796978288       838.0771754564     38716.2008889475         6.6360587609         7.2621474962
 11   7        19.9967012463       838.9835071074     38763.0222377785         6.6366498903         7.2623866081
 11   8        19.9796978288       838.0771754564     38716.2008889470         6.6360587609         7.2621474962
 11   9        19.9166684162       838.4313565659     38995.0064715308         6.6533132601         7.2691269412
 11  10        19.9151181261       838.3481510530     38989.8429908424         6.6532221495         7.2690900870
 11  11        19.9166684162       838.4313565659     38995.0064715310         6.6533132601         7.2691269412
 12   1        19.9643799415       841.3079400589     39117.4149886686         6.6545103610         7.2696111685
 12   2        19.9489776643       840.5204064150     39076.5013341254         6.6540549043         7.2694269363
 12   3        19.9643799415       841.3079400589     39117.4149886686         6.6545103610         7.2696111685
 12   4        19.9489776643       840.5204064150     39076.5013341254         6.6540549043         7.2694269363
 12   5        19.9951531643       838.9005405212     38757.8893554442         6.6365583059         7.2623495622
 12   6        19.9781489616       837.9942062048     38711.0696966219         6.6359671654         7.2621104459
 12   7        19.9951531643       838.9005405212     38757.8893554446         6.6365583059         7.2623495622
 12   8        19.9781489616       837.9942062048     38711.0696966215         6.6359671654         7.2621104459
 12   9        19.9151181261       838.3481510530     38989.8429908423         6.6532221495         7.2690900870
 12  10        19.9135692157       838.2650064099     38984.6825725735         6.6531310366         7.2690532318
 12  11        19.9151181261       838.3481510530     38989.8429908424         6.6532221495         7.2690900870
 12  12        19.9135692157       838.2650064099     38984.6825725735         6.6531310366         7.2690532318
 13   1        19.9108147530       839.1887011163     39056.0063334187         6.6563880300         7.2703706856
 13   2        19.8954584586       838.4033702634     39015.1762048173         6.6559328959         7.2701865839
 13   3        19.9108147530       839.1887011163     39056.0063334187         6.6563880300         7.2703706856
 13   4        19.8954584586       838.4033702634     39015.1762048172         6.6559328959         7.2701865839
 13   5        19.9416727131       836.7949938638     38697.7892983343         6.6384487277         7.2631142378
 13   6        19.9247288314       835.8915887269     38651.0841172795         6.6378580104         7.2628752927
 13   7        19.9416727131       836.7949938638     38697.7892983348         6.6384487277         7.2631142378
 13   8        19.9247288314       835.8915887269     38651.0841172791         6.6378580104         7.2628752927
 13   9        19.8619110892       836.2460272208     38929.1006821313         6.6551007377         7.2698499759
 13  10        19.8603574264       836.1627196946     38923.9330173975         6.6550096892         7.2698131468
 13  11        19.8619110892       836.2460272208     38929.1006821314         6.6551007377         7.2698499759
 13  12        19.8603574264       836.1627196946     38923.9330173975         6.6550096892         7.2698131468
 13  13        19.8073506099       834.0683264487     38863.3547235625         6.6568870167         7.2705725257
 14   1        19.9141154036       839.0808169794     39038.3576684950         6.6553593286         7.2699545759
 14   2        19.8987577416       838.2955960628     38997.5448828841         6.6549041189         7.2697704436
 14   3        19.9141154036       839.0808169794     39038.3576684949         6.6553593286         7.2699545759
 14   4        19.8987577416       838.2955960628     38997.5448828840         6.6549041189         7.2697704436
 14   5        19.9450207875       836.6881049447     38680.2114619541         6.6374153384         7.2626962319
 14   6        19.9280778141       835.7849157230     38633.5306262055         6.6368245349         7.2624572519
 14   7        19.9450207875       836.6881049447     38680.2114619545         6.6374153384         7.2626962319
 14   8        19.9280778141       835.7849157230     38633.5306262051         6.6368245349         7.2624572519
 14   9        19.8652607803       836.1406672934     38911.6225806856         6.6540722975         7.2694339718
 14  10        19.8637046072       836.0572703607     38906.4519358567         6.6539812245         7.2693971328
 14  11        19.8652607803       836.1406672934     38911.6225806858         6.6540722975         7.2694339718
 14  12        19.8637046072       836.0572703607     38906.4519358567         6.6539812245         7.2693971328
 14  13        19.8107047342       833.9638500715     38845.9555509911         6.6558592797         7.2701568061
 14  14        19.8140634416       833.8594833678     38828.5629294995         6.6548313096         7.2697409922
 15   1        19.9108147530       839.1887011163     39056.0063334190         6.6563880300         7.2703706856
 15   2        19.8954584586       838.4033702634     39015.1762048176         6.6559328959         7.2701865839
 15   3        19.9108147530       839.1887011163     39056.0063334190         6.6563880300         7.2703706856
 15   4        19.8954584586       838.4033702634     39015.1762048175         6.6559328959         7.2701865839
 15   5        19.9416727131       836.7949938638     38697.7892983346         6.6384487277         7.2631142378
 15   6        19.9247288314       835.8915887269     38651.0841172798         6.6378580104         7.2628752927
 15   7        19.9416727131       836.7949938638     38697.7892983350         6.6384487277         7.2631142378
 15   8        19.9247288314       835.8915887269     38651.0841172793         6.6378580104         7.2628752927
 15   9        19.8619110892       836.2460272208     38929.1006821316         6.6551007377         7.2698499759
 15  10        19.8603574264       836.1627196946     38923.9330173978         6.6550096892         7.2698131468
 15  11        19.8619110892       836.2460272208     38929.1006821317         6.6551007377         7.2698499759
 15  12        19.8603574264       836.1627196946     38923.9330173978         6.6550096892         7.2698131468
 15  13        19.8073506099       834.0683264487     38863.3547235628         6.6568870167         7.2705725257
 15  14        19.8107047342       833.9638500716     38845.9555509913         6.6558592797         7.2701568061
 15  15        19.8073506099       834.0683264487     38863.3547235631         6.6568870167         7.2705725257
 16   1        19.9141154036       839.0808169794     39038.3576684951         6.6553593286         7.2699545759
 16   2        19.8987577416       838.2955960628     38997.5448828842         6.6549041189         7.2697704436
 16   3        19.9141154036       839.0808169794     39038.3576684950         6.6553593286         7.2699545759
 16   4        19.8987577416       838.2955960628     38997.5448828841         6.6549041189         7.2697704436
 16   5        19.9450207875       836.6881049447     38680.2114619542         6.6374153384         7.2626962319
 16   6        19.9280778141       835.7849157230     38633.5306262056         6.6368245349         7.2624572519
 16   7        19.9450207875       836.6881049447     38680.2114619546         6.6374153384         7.2626962319
 16   8        19.9280778141       835.7849157230     38633.5306262052         6.6368245349         7.2624572519
 16   9        19.8652607803       836.1406672934     38911.6225806858         6.6540722975         7.2694339718
 16  10        19.8637046072       836.0572703607     38906.4519358568         6.6539812245         7.2693971328
 16  11        19.8652607803       836.1406672934     38911.6225806859         6.6540722975         7.2694339718
 16  12        19.8637046072       836.0572703607     38906.4519358568         6.6539812245         7.2693971328
 16  13        19.8107047342       833.9638500715     38845.9555509912         6.6558592797         7.2701568061
 16  14        19.8140634416       833.8594833678     38828.5629294996         6.6548313096         7.2697409922
 16  15        19.8107047342       833.9638500716     38845.9555509915         6.6558592797         7.2701568061
 16  16        19.8140634416       833.8594833678     38828.5629294997         6.6548313096         7.2697409922
 17   1        19.9979351377       841.3527688531     38960.1221553500         6.6449542777         7.2657457328
 17   2        19.9825171249       840.5653949219     38919.3493074528         6.6444975665         7.2655609931
 17   3        19.9979351377       841.3527688531     38960.1221553500         6.6449542777         7.2657457328
 17   4        19.9825171249       840.5653949219     38919.3493074527         6.6444975665         7.2655609931
 17   5        20.0291247140       838.9544857890     38600.8253960211         6.6269460304         7.2584613968
 17   6        20.0121239659       838.0491323218     38554.2027712508         6.6263532944         7.2582216351
 17   7        20.0291247140       838.9544857890     38600.8253960215         6.6269460304         7.2584613968
 17   8        20.0121239659       838.0491323218     38554.2027712504         6.6263532944         7.2582216351
 17   9        19.9490830436       838.4120830216     38833.9580036907         6.6436643401         7.2652239531
 17  10        19.9475121145       838.3280884557     38828.7706589775         6.6435729402         7.2651869818
 17  11        19.9490830436       838.4120830216     38833.9580036909         6.6436643401         7.2652239531
 17  12        19.9475121145       838.3280884557     38828.7706589775         6.6435729402         7.2651869818
 17  13        19.8943464623       836.2316195998     38768.7607701797         6.6454583641         7.2659496358
 17  14        19.8977339759       836.1272143606     38751.3113273037         6.6444268271         7.2655323791
 17  15        19.8943464623       836.2316195998     38768.7607701799         6.6454583641         7.2659496358
 17  16        19.8977339759       836.1272143606     38751.3113273038         6.6444268271         7.2655323791
 17  17        19.9818111083       838.4014636656     38672.9660355517         6.6339827455         7.2613077480
 18   1        20.0008618371       841.3336263990     38948.3133784014         6.6442046658         7.2654425148
 18   2        19.9854416985       840.5462524216     38907.5501601650         6.6437478766         7.2652577436
 18   3        20.0008618371       841.3336263990     38948.3133784014         6.6442046658         7.2654425148
 18   4        19.9854416985       840.5462524216     38907.5501601650         6.6437478766         7.2652577436
 18   5        20.0320606711       838.9349669924     38588.9950427813         6.6261924673         7.2581565805
 18   6        20.0150578472       838.0296191960     38542.3837962799         6.6255996355         7.2579167800
 18   7        20.0320606711       838.9349669924     38588.9950427817         6.6261924673         7.2581565805
 18   8        20.0150578472       838.0296191960     38542.3837962795         6.6255996355         7.2579167800
 18   9        19.9520089326       838.3931241257     38822.1976311030         6.6429147486         7.2649207433
 18  10        19.9504375237       838.3091179373     38817.0106536171         6.6428233283         7.2648837638
 18  11        19.9520089326       838.3931241257     38822.1976311031         6.6429147486         7.2649207433
 18  12        19.9504375237       838.3091179373     38817.0106536171         6.6428233283         7.2648837638
 18  13        19.8972658357       836.2127938856     38757.0400841257         6.6447092853         7.2656466334
 18  14        19.9006542918       836.1083679379     38739.5892607347         6.6436775404         7.2652292926
 18  15        19.8972658357       836.2127938856     38757.0400841259         6.6447092853         7.2656466334
 18  16        19.9006542918       836.1083679379     38739.5892607348         6.6436775404         7.2652292926
 18  17        19.9847453863       838.3824209236     38661.1787630757         6.6332307386         7.2610035613
 18  18        19.9876801445       838.3633565818     38649.3891782533         6.6324785605         7.2606993052
 19   1        19.9979351377       841.3527688531     38960.1221553503         6.6449542777         7.2657457328
 19   2        19.9825171249       840.5653949219     38919.3493074530         6.6444975665         7.2655609931
 19   3        19.9979351377       841.3527688531     38960.1221553502         6.6449542777         7.2657457328
 19   4        19.9825171249       840.5653949219     38919.3493074529         6.6444975665         7.2655609931
 19   5        20.0291247140       838.9544857890     38600.8253960213         6.6269460304         7.2584613968
 19   6        20.0121239659       838.0491323218     38554.2027712510         6.6263532944         7.2582216351
 19   7        20.0291247140       838.9544857890     38600.8253960217         6.6269460304         7.2584613968
 19   8        20.0121239659       838.0491323218     38554.2027712506         6.6263532944         7.2582216351
 19   9        19.9490830436       838.4120830216     38833.9580036909         6.6436643401         7.2652239531
 19  10        19.9475121145       838.3280884557     38828.7706589778         6.6435729402         7.2651869818
 19  11        19.9490830436       838.4120830216     38833.9580036911         6.6436643401         7.2652239531
 19  12        19.9475121145       838.3280884557     38828.7706589778         6.6435729402         7.2651869818
 19  13        19.8943464623       836.2316195998     38768.7607701799         6.6454583641         7.2659496358
 19  14        19.8977339759       836.1272143606     38751.3113273039         6.6444268271         7.2655323791
 19  15        19.8943464623       836.2316195998     38768.7607701801         6.6454583641         7.2659496358
 19  16        19.8977339759       836.1272143606     38751.3113273040         6.6444268271         7.2655323791
 19  17        19.9818111083       838.4014636656     38672.9660355519         6.6339827455         7.2613077480
 19  18        19.9847453863       838.3824209236     38661.1787630759         6.6332307386         7.2610035613
 19  19        19.9818111083       838.4014636656     38672.9660355521         6.6339827455         7.2613077480
 20   1        20.0008618371       841.3336263990     38948.3133784012         6.6442046658         7.2654425148
 20   2        19.9854416985       840.5462524216     38907.5501601647         6.6437478766         7.2652577436
 20   3        20.0008618371       841.3336263990     38948.3133784011         6.6442046658         7.2654425148
 20   4        19.9854416985       840.5462524216     38907.5501601647         6.6437478766         7.2652577436
 20   5        20.0320606711       838.9349669924     38588.9950427810         6.6261924673         7.2581565805
 20   6        20.0150578472       838.0296191960     38542.3837962796         6.6255996355         7.2579167800
 20   7        20.0320606711       838.9349669924     38588.9950427814         6.6261924673         7.2581565805
 20   8        20.0150578472       838.0296191960     38542.3837962792         6.6255996355         7.2579167800
 20   9        19.9520089326       838.3931241257     38822.1976311027         6.6429147486         7.2649207433
 20  10        19.9504375237       838.3091179373     38817.0106536168         6.6428233283         7.2648837638
 20  11        19.9520089326       838.3931241257     38822.1976311029         6.6429147486         7.2649207433
 20  12        19.9504375237       838.3091179373     38817.0106536168         6.6428233283         7.2648837638
 20  13        19.8972658357       836.2127938856     38757.0400841254         6.6447092853         7.2656466334
 20  14        19.9006542918       836.1083679379     38739.5892607344         6.6436775404         7.2652292926
 20  15        19.8972658357       836.2127938856     38757.0400841257         6.6447092853         7.2656466334
 20  16        19.9006542918       836.1083679379     38739.5892607345         6.6436775404         7.2652292926
 20  17        19.9847453863       838.3824209236     38661.1787630754         6.6332307386         7.2610035613
 20  18        19.9876801445       838.3633565818     38649.3891782530         6.6324785605         7.2606993052
 20  19        19.9847453863       838.3824209236     38661.1787630757         6.6332307386         7.2610035613
 20  20        19.9876801445       838.3633565818     38649.3891782527         6.6324785605         7.2606993052
 21   1        20.2373961766       830.2640893926     37674.5373678588         6.5699977599         7.2354258214
 21   2        20.2217805181       829.4830693760     37634.8768984469         6.5695372410         7.2352395415
 21   3        20.2373961766       830.2640893926     37674.5373678587         6.5699977599         7.2354258214
 21   4        20.2217805181       829.4830693760     37634.8768984468         6.5695372410         7.2352395415
 21   5        20.2684913685       827.7849737484     37314.6741630544         6.5516803188         7.2280164165
 21   6        20.2512459455       826.8850969809     37269.2829734841         6.5510837952         7.2277751226
 21   7        20.2684913685       827.7849737484     37314.6741630548         6.5516803188         7.2280164165
 21   8        20.2512459455       826.8850969809     37269.2829734837         6.5510837952         7.2277751226
 21   9        20.1873271658       827.3139914239     37551.7161262809         6.5687414360         7.2349176384
 21  10        20.1857623375       827.2316750220     37546.6860711277         6.5686484020         7.2348800061
 21  11        20.1873271658       827.3139914239     37551.7161262811         6.5687414360         7.2349176384
 21  12        20.1857623375       827.2316750220     37546.6860711277         6.5686484020         7.2348800061
 21  13        20.1317861130       825.1592321229     37490.0132351036         6.5705883849         7.2356647292
 21  14        20.1351696576       825.0481767544     37472.4638876089         6.5695424241         7.2352416380
 21  15        20.1317861130       825.1592321229     37490.0132351039         6.5705883849         7.2356647292
 21  16        20.1351696576       825.0481767544     37472.4638876090         6.5695424241         7.2352416380
 21  17        20.2200883378       827.2539746013     37388.0135854173         6.5588396294         7.2309123576
 21  18        20.2230526811       827.2313982034     37376.1010530183         6.5580735833         7.2306024919
 21  19        20.2200883378       827.2539746014     37388.0135854175         6.5588396294         7.2309123576
 21  20        20.2230526811       827.2313982034     37376.1010530180         6.5580735833         7.2306024919
 21  21        20.4616979134       815.7409779154     36109.5520087640         6.4828986968         7.2001942503
 22   1        20.2291641401       829.8650019424     37654.1621642159         6.5697778648         7.2353368738
 22   2        20.2135554187       829.0843709620     37614.5236074307         6.5693173345         7.2351505893
 22   3        20.2291641401       829.8650019424     37654.1621642158         6.5697778648         7.2353368738
 22   4        20.2135554187       829.0843709620     37614.5236074307         6.5693173345         7.2351505893
 22   5        20.2602676930       827.3876584502     37294.4975071963         6.5514594960         7.2279270936
 22   6        20.2430311307       826.4882751706     37249.1335559828         6.5508629610         7.2276857952
 22   7        20.2602676930       827.3876584502     37294.4975071967         6.5514594960         7.2279270936
 22   8        20.2430311307       826.4882751706     37249.1335559824         6.5508629610         7.2276857952
 22   9        20.1791438743       826.9174187010     37531.4612292066         6.5685216417         7.2348287315
 22  10        20.1775785638       826.8350946626     37526.4316297499         6.5684286028         7.2347910973
 22  11        20.1791438743       826.9174187010     37531.4612292068         6.5685216417         7.2348287315
 22  12        20.1775785638       826.8350946626     37526.4316297499         6.5684286028         7.2347910973
 22  13        20.1236321065       824.7639787569     37469.8091161381         6.5703687493         7.2355758866
 22  14        20.1270162745       824.6530397999     37452.2711564598         6.5693227452         7.2351527779
 22  15        20.1236321065       824.7639787570     37469.8091161384         6.5703687493         7.2355758866
 22  16        20.1270162745       824.6530397999     37452.2711564599         6.5693227452         7.2351527779
 22  17        20.2119078307       826.8579840822     37367.8545198613         6.5586191744         7.2308231835
 22  18        20.2148711959       826.8354168764     37355.9472919661         6.5578530862         7.2305133009
 22  19        20.2119078307       826.8579840822     37367.8545198615         6.5586191744         7.2308231835
 22  20        20.2148711959       826.8354168764     37355.9472919658         6.5578530862         7.2305133009
 22  21        20.4533976104       815.3480338261     36089.9322376325         6.4826758456         7.2001041070
 22  22        20.4451016646       814.9553137646     36070.3245399394         6.4824529871         7.2000139608
 23   1        20.2373961766       830.2640893926     37674.5373678589         6.5699977599         7.2354258214
 23   2        20.2217805181       829.4830693760     37634.8768984470         6.5695372410         7.2352395415
 23   3        20.2373961766       830.2640893926     37674.5373678589         6.5699977599         7.2354258214
 23   4        20.2217805181       829.4830693760     37634.8768984470         6.5695372410         7.2352395415
 23   5        20.2684913685       827.7849737484     37314.6741630546         6.5516803188         7.2280164165
 23   6        20.2512459455       826.8850969809     37269.2829734843         6.5510837952         7.2277751226
 23   7        20.2684913685       827.7849737484     37314.6741630550         6.5516803188         7.2280164165
 23   8        20.2512459455       826.8850969809     37269.2829734838         6.5510837952         7.2277751226
 23   9        20.1873271658       827.3139914239     37551.7161262811         6.5687414360         7.2349176384
 23  10        20.1857623375       827.2316750220     37546.6860711278         6.5686484020         7.2348800061
 23  11        20.1873271658       827.3139914239     37551.7161262812         6.5687414360         7.2349176384
 23  12        20.1857623375       827.2316750220     37546.6860711278         6.5686484020         7.2348800061
 23  13        20.1317861130       825.1592321229     37490.0132351038         6.5705883849         7.2356647292
 23  14        20.1351696576       825.0481767544     37472.4638876091         6.5695424241         7.2352416380
 23  15        20.1317861130       825.1592321229     37490.0132351041         6.5705883849         7.2356647292
 23  16        20.1351696576       825.0481767544     37472.4638876092         6.5695424241         7.2352416380
 23  17        20.2200883378       827.2539746013     37388.0135854175         6.5588396294         7.2309123576
 23  18        20.2230526811       827.2313982034     37376.1010530184         6.5580735833         7.2306024919
 23  19        20.2200883378       827.2539746014     37388.0135854177         6.5588396294         7.2309123576
 23  20        20.2230526811       827.2313982034     37376.1010530181         6.5580735833         7.2306024919
 23  21        20.4616979134       815.7409779154     36109.5520087641         6.4828986968         7.2001942503
 23  22        20.4533976104       815.3480338261     36089.9322376327         6.4826758456         7.2001041070
 23  23        20.4616979134       815.7409779154     36109.5520087643         6.4828986968         7.2001942503
 24   1        20.2291641401       829.8650019424     37654.1621642161         6.5697778648         7.2353368738
 24   2        20.2135554187       829.0843709620     37614.5236074310         6.5693173345         7.2351505893
 24   3        20.2291641401       829.8650019424     37654.1621642161         6.5697778648         7.2353368738
 24   4        20.2135554187       829.0843709620     37614.5236074310         6.5693173345         7.2351505893
 24   5        20.2602676930       827.3876584502     37294.4975071966         6.5514594960         7.2279270936
 24   6        20.2430311307       826.4882751706     37249.1335559831         6.5508629610         7.2276857952
 24   7        20.2602676930       827.3876584502     37294.4975071970         6.5514594960         7.2279270936
 24   8        20.2430311307       826.4882751706     37249.1335559827         6.5508629610         7.2276857952
 24   9        20.1791438743       826.9174187010     37531.4612292069         6.5685216417         7.2348287315
 24  10        20.1775785638       826.8350946626     37526.4316297501         6.5684286028         7.2347910973
 24  11        20.1791438743       826.9174187010     37531.4612292071         6.5685216417         7.2348287315
 24  12        20.1775785638       826.8350946626     37526.4316297502         6.5684286028         7.2347910973
 24  13        20.1236321065       824.7639787570     37469.8091161384         6.5703687493         7.2355758866
 24  14        20.1270162745       824.6530397999     37452.2711564601         6.5693227452         7.2351527779
 24  15        20.1236321065       824.7639787570     37469.8091161387         6.5703687493         7.2355758866
 24  16        20.1270162745       824.6530397999     37452.2711564602         6.5693227452         7.2351527779
 24  17        20.2119078307       826.8579840822     37367.8545198616         6.5586191744         7.2308231835
 24  18        20.2148711959       826.8354168764     37355.9472919664         6.5578530862         7.2305133009
 24  19        20.2119078307       826.8579840822     37367.8545198618         6.5586191744         7.2308231835
 24  20        20.2148711959       826.8354168764     37355.9472919661         6.5578530862         7.2305133009
 24  21        20.4533976104       815.3480338261     36089.9322376328         6.4826758456         7.2001041070
 24  22        20.4451016646       814.9553137646     36070.3245399397         6.4824529871         7.2000139608
 24  23        20.4533976104       815.3480338261     36089.9322376329         6.4826758456         7.2001041070
 24  24        20.4451016646       814.9553137647     36070.3245399399         6.4824529871         7.2000139608
 25   1        19.9122199972       837.2561616901     38884.0587108334         6.6489396588         7.2673578195
 25   2        19.8968727273       836.4727365243     38843.4059636371         6.6484840979         7.2671735451
 25   3        19.9122199972       837.2561616901     38884.0587108334         6.6489396588         7.2673578195
 25   4        19.8968727273       836.4727365243     38843.4059636370         6.6484840979         7.2671735451
 25   5        19.9434432056       834.8743975284     38526.9368569277         6.6309691087         7.2600887320
 25   6        19.9265300260       833.9739551015     38480.4737396913         6.6303779411         7.2598496046
 25   7        19.9434432056       834.8743975284     38526.9368569282         6.6309691087         7.2600887320
 25   8        19.9265300260       833.9739551014     38480.4737396908         6.6303779411         7.2598496046
 25   9        19.8638032948       834.3387709541     38758.6947098521         6.6476551796         7.2668382476
 25  10        19.8622301897       834.2548005117     38753.5058684670         6.6475639667         7.2668013520
 25  11        19.8638032948       834.3387709541     38758.6947098523         6.6476551796         7.2668382476
 25  12        19.8622301897       834.2548005117     38753.5058684670         6.6475639667         7.2668013520
 25  13        19.8093546291       832.1712363121     38693.6270304522         6.6494465745         7.2675628669
 25  14        19.8127435501       832.0678609169     38676.3098383739         6.6484173458         7.2671465439
 25  15        19.8093546291       832.1712363121     38693.6270304525         6.6494465745         7.2675628669
 25  16        19.8127435501       832.0678609169     38676.3098383740         6.6484173458         7.2671465439
 25  17        19.8965194015       834.3327598228     38598.8515101466         6.6379911189         7.2629291351
 25  18        19.8994429161       834.3138002600     38587.1378317489         6.6372406330         7.2626255635
 25  19        19.8965194015       834.3327598228     38598.8515101468         6.6379911189         7.2629291351
 25  20        19.8994429161       834.3138002600     38587.1378317486         6.6372406330         7.2626255635
 25  21        20.1336039614       823.2198306279     37321.1109663446         6.5630350696         7.2326094131
 25  22        20.1254663284       822.8260568008     37301.0179144999         6.5628151757         7.2325204660
 25  23        20.1336039614       823.2198306279     37321.1109663447         6.5630350696         7.2326094131
 25  24        20.1254663284       822.8260568008     37301.0179145002         6.5628151757         7.2325204660
 25  25        19.8116545623       830.2861467154     38524.8096355411         6.6419969938         7.2645495115
 26   1        19.9135730356       837.0279615380     38858.9641154933         6.6477528238         7.2668777447
 26   2        19.8982252612       836.2447254950     38818.3347253054         6.6472971757         7.2666934351
 26   3        19.9135730356       837.0279615380     38858.9641154933         6.6477528238         7.2668777447
 26   4        19.8982252612       836.2447254950     38818.3347253053         6.6472971757         7.2666934351
 26   5        19.9448177011       834.6463976478     38501.9105702526         6.6297768529         7.2596064645
 26   6        19.9279050710       833.7462070759     38455.4761787819         6.6291855861         7.2593672971
 26   7        19.9448177011       834.6463976478     38501.9105702531         6.6297768529         7.2596064645
 26   8        19.9279050710       833.7462070759     38455.4761787814         6.6291855861         7.2593672971
 26   9        19.8651791607       834.1121624020     38733.7335240999         6.6464686510         7.2663582968
 26  10        19.8636049190       834.0281655222     38728.5449875577         6.6463774098         7.2663213897
 26  11        19.8651791607       834.1121624020     38733.7335241001         6.6464686510         7.2663582968
 26  12        19.8636049190       834.0281655222     38728.5449875577         6.6463774098         7.2663213897
[...]
            =  -1.243498160293E-06  -3.444625840044E-05   6.967314830458E-05  Ry/bohr
  Fvdw (86) =  -8.597026303069E-06  -1.623095683927E-05  -3.533077543089E-05  Hartree/bohr
            =  -1.719405260614E-05  -3.246191367854E-05  -7.066155086177E-05  Ry/bohr
  Fvdw (87) =   6.217490801512E-07   1.722312920023E-05  -3.483657415229E-05  Hartree/bohr
            =   1.243498160302E-06   3.444625840045E-05  -6.967314830458E-05  Ry/bohr
  Fvdw (88) =   8.597026303069E-06   1.623095683927E-05   3.533077543089E-05  Hartree/bohr
            =   1.719405260614E-05   3.246191367855E-05   7.066155086177E-05  Ry/bohr
  Fvdw (89) =  -2.767712449924E-04   2.456015922236E-04  -4.899195171590E-05  Hartree/bohr
            =  -5.535424899848E-04   4.912031844472E-04  -9.798390343180E-05  Ry/bohr
  Fvdw (90) =   2.556062131954E-04   2.502245869051E-04   4.376077515891E-05  Hartree/bohr
            =   5.112124263909E-04   5.004491738102E-04   8.752155031782E-05  Ry/bohr
  Fvdw (91) =   2.767712449924E-04  -2.456015922236E-04   4.899195171590E-05  Hartree/bohr
            =   5.535424899848E-04  -4.912031844472E-04   9.798390343180E-05  Ry/bohr
  Fvdw (92) =  -2.556062131954E-04  -2.502245869051E-04  -4.376077515891E-05  Hartree/bohr
            =  -5.112124263908E-04  -5.004491738102E-04  -8.752155031782E-05  Ry/bohr
  sigma_vdw (Hy/bohr**3) =  -3.554685630224E-05  -2.277273142925E-08   6.590711201328E-07  
                            -2.277273142925E-08  -3.465697223162E-05  -6.742459161974E-09  
                             6.590711201328E-07  -6.742459161974E-09  -3.711718637637E-05  
  sigma_vdw (Ry/bohr**3) =  -7.109371260448E-05  -4.554546285851E-08   1.318142240266E-06  
                            -4.554546285851E-08  -6.931394446325E-05  -1.348491832395E-08  
                             1.318142240266E-06  -1.348491832395E-08  -7.423437275274E-05  
  sigma_vdw (GPa) =  -1.045824443306E+00  -6.699967774103E-04   1.939053854585E-02  
                     -6.699967774103E-04  -1.019643154451E+00  -1.983699638481E-04  
                      1.939053854585E-02  -1.983699638481E-04  -1.092025141383E+00  
 
 TIME (final):      739.3

!    total energy              =   -5856.00861621 Ry
     Harris-Foulkes estimate   =   -5856.00861626 Ry
     estimated scf accuracy    <       0.00000006 Ry

     total all-electron energy =   -116974.422489 Ry

     The total energy is the sum of the following terms:

     one-electron contribution =   -1694.40324985 Ry
     hartree contribution      =    1073.83012571 Ry
     xc contribution           =    -647.79516039 Ry
     ewald contribution        =   -1100.73001302 Ry
     Dispersion XDM Correction =      -0.66327233 Ry
     Uncorrected (XDM) energy  =   -5855.34534388 Ry
     one-center paw contrib.   =   -3486.24704633 Ry

     convergence has been achieved in  41 iterations

     Forces acting on atoms (Ry/au):

     atom    1 type  1   force =    -0.00073895    0.00025039   -0.00008948
     atom    2 type  1   force =     0.00002948   -0.00071412    0.00063916
     atom    3 type  1   force =     0.00073895   -0.00025039    0.00008948
     atom    4 type  1   force =    -0.00002948    0.00071412   -0.00063916
     atom    5 type  1   force =     0.00015988   -0.00009881    0.00002870
     atom    6 type  1   force =    -0.00025328   -0.00018782   -0.00012093
     atom    7 type  1   force =    -0.00015988    0.00009881   -0.00002870
     atom    8 type  1   force =     0.00025328    0.00018782    0.00012093
     atom    9 type  1   force =    -0.00019123   -0.00004730   -0.00008052
     atom   10 type  1   force =     0.00015932   -0.00008964   -0.00007767
     atom   11 type  1   force =     0.00019123    0.00004730    0.00008052
     atom   12 type  1   force =    -0.00015932    0.00008964    0.00007767
     atom   13 type  1   force =     0.00004620    0.00029641   -0.00027339
     atom   14 type  1   force =    -0.00028815    0.00024634    0.00035964
     atom   15 type  1   force =    -0.00004620   -0.00029641    0.00027339
     atom   16 type  1   force =     0.00028815   -0.00024634   -0.00035964
     atom   17 type  1   force =    -0.00035866   -0.00021032   -0.00015840
     atom   18 type  1   force =     0.00003738   -0.00023744    0.00018431
     atom   19 type  1   force =     0.00035866    0.00021032    0.00015840
     atom   20 type  1   force =    -0.00003738    0.00023744   -0.00018431
     atom   21 type  1   force =     0.00000066   -0.00097956   -0.00018588
     atom   22 type  1   force =    -0.00018357   -0.00036617    0.00027076
     atom   23 type  1   force =    -0.00000066    0.00097956    0.00018588
     atom   24 type  1   force =     0.00018357    0.00036617   -0.00027076
     atom   25 type  1   force =     0.00034671    0.00045894   -0.00015311
     atom   26 type  1   force =    -0.00026075    0.00026749    0.00026954
     atom   27 type  1   force =    -0.00034671   -0.00045894    0.00015311
     atom   28 type  1   force =     0.00026075   -0.00026749   -0.00026954
     atom   29 type  1   force =    -0.00015351   -0.00032165    0.00004727
     atom   30 type  1   force =     0.00011914   -0.00047689    0.00017710
     atom   31 type  1   force =     0.00015351    0.00032165   -0.00004727
     atom   32 type  1   force =    -0.00011914    0.00047689   -0.00017710
     atom   33 type  1   force =     0.00054024   -0.00056384   -0.00014169
     atom   34 type  1   force =    -0.00056972   -0.00056011   -0.00023389
     atom   35 type  1   force =    -0.00054024    0.00056384    0.00014169
     atom   36 type  1   force =     0.00056972    0.00056011    0.00023389
     atom   37 type  1   force =     0.00007591    0.00011234    0.00040047
     atom   38 type  1   force =    -0.00014756   -0.00031674    0.00020738
     atom   39 type  1   force =    -0.00007591   -0.00011234   -0.00040047
     atom   40 type  1   force =     0.00014756    0.00031674   -0.00020738
     atom   41 type  1   force =     0.00076064    0.00001573    0.00002263
     atom   42 type  1   force =    -0.00029660    0.00008518   -0.00035725
     atom   43 type  1   force =    -0.00076064   -0.00001573   -0.00002263
     atom   44 type  1   force =     0.00029660   -0.00008518    0.00035725
     atom   45 type  1   force =     0.00008410   -0.00016462    0.00021715
     atom   46 type  1   force =    -0.00038186   -0.00039895   -0.00039843
     atom   47 type  1   force =    -0.00008410    0.00016462   -0.00021715
     atom   48 type  1   force =     0.00038186    0.00039895    0.00039843
     atom   49 type  4   force =    -0.00026703   -0.00054647   -0.00013601
     atom   50 type  4   force =    -0.00017077    0.00034931   -0.00031347
     atom   51 type  4   force =     0.00026703    0.00054647    0.00013601
     atom   52 type  4   force =     0.00017077   -0.00034931    0.00031347
     atom   53 type  4   force =    -0.00011562    0.00009975   -0.00057161
     atom   54 type  4   force =     0.00047289   -0.00084741   -0.00003725
     atom   55 type  4   force =     0.00011562   -0.00009975    0.00057161
     atom   56 type  4   force =    -0.00047289    0.00084741    0.00003725
     atom   57 type  2   force =    -0.00018162    0.00046193   -0.00039987
     atom   58 type  2   force =     0.00017604   -0.00021743   -0.00031992
     atom   59 type  2   force =     0.00018162   -0.00046193    0.00039987
     atom   60 type  2   force =    -0.00017604    0.00021743    0.00031992
     atom   61 type  2   force =    -0.00007522    0.00012623    0.00006268
     atom   62 type  2   force =    -0.00005544   -0.00004186    0.00025288
     atom   63 type  2   force =     0.00007522   -0.00012623   -0.00006268
     atom   64 type  2   force =     0.00005544    0.00004186   -0.00025288
     atom   65 type  2   force =     0.00064466    0.00032146    0.00036027
     atom   66 type  2   force =    -0.00014294    0.00001827   -0.00014909
     atom   67 type  2   force =    -0.00064466   -0.00032146   -0.00036027
     atom   68 type  2   force =     0.00014294   -0.00001827    0.00014909
     atom   69 type  2   force =     0.00033690    0.00002849   -0.00031744
     atom   70 type  2   force =    -0.00063312   -0.00002586   -0.00048375
     atom   71 type  2   force =    -0.00033690   -0.00002849    0.00031744
     atom   72 type  2   force =     0.00063312    0.00002586    0.00048375
     atom   73 type  2   force =     0.00053426    0.00029350    0.00035074
     atom   74 type  2   force =    -0.00031880    0.00029427   -0.00059093
     atom   75 type  2   force =    -0.00053426   -0.00029350   -0.00035074
     atom   76 type  2   force =     0.00031880   -0.00029427    0.00059093
     atom   77 type  2   force =    -0.00023245   -0.00022253   -0.00010787
     atom   78 type  2   force =    -0.00011101   -0.00038245    0.00047194
     atom   79 type  2   force =     0.00023245    0.00022253    0.00010787
     atom   80 type  2   force =     0.00011101    0.00038245   -0.00047194
     atom   81 type  2   force =     0.00064185    0.00053345    0.00038662
     atom   82 type  2   force =     0.00008046   -0.00002790    0.00016818
     atom   83 type  2   force =    -0.00064185   -0.00053345   -0.00038662
     atom   84 type  2   force =    -0.00008046    0.00002790   -0.00016818
     atom   85 type  2   force =     0.00005721   -0.00059385   -0.00009795
     atom   86 type  2   force =     0.00047309    0.00010447   -0.00016383
     atom   87 type  2   force =    -0.00005721    0.00059385    0.00009795
     atom   88 type  2   force =    -0.00047309   -0.00010447    0.00016383
     atom   89 type  3   force =    -0.00072503   -0.00038717   -0.00015866
     atom   90 type  3   force =     0.00058620    0.00027460   -0.00025619
     atom   91 type  3   force =     0.00072503    0.00038717    0.00015866
     atom   92 type  3   force =    -0.00058620   -0.00027460    0.00025619

     Total force =     0.005673     Total SCF correction =     0.000625

     Total XDM Dispersion Force =     0.005716

     XDM Dispersion forces acting on atoms:
     atom    1 type  1   force =     0.00005160    0.00020058   -0.00001241
     atom    2 type  1   force =    -0.00003464    0.00022069    0.00002326
     atom    3 type  1   force =    -0.00005160   -0.00020058    0.00001241
     atom    4 type  1   force =     0.00003464   -0.00022069   -0.00002326
     atom    5 type  1   force =     0.00045747    0.00023169   -0.00032130
     atom    6 type  1   force =    -0.00045632    0.00023296    0.00033126
     atom    7 type  1   force =    -0.00045747   -0.00023169    0.00032130
     atom    8 type  1   force =     0.00045632   -0.00023296   -0.00033126
     atom    9 type  1   force =     0.00039457    0.00006064    0.00044265
     atom   10 type  1   force =    -0.00038072    0.00007574   -0.00043779
     atom   11 type  1   force =    -0.00039457   -0.00006064   -0.00044265
     atom   12 type  1   force =     0.00038072   -0.00007574    0.00043779
     atom   13 type  1   force =    -0.00001290   -0.00003622   -0.00005983
     atom   14 type  1   force =    -0.00000128   -0.00003368    0.00005875
     atom   15 type  1   force =     0.00001290    0.00003622    0.00005983
     atom   16 type  1   force =     0.00000128    0.00003368   -0.00005875
     atom   17 type  1   force =    -0.00010375   -0.00052926   -0.00024274
     atom   18 type  1   force =     0.00009730   -0.00052200    0.00023503
     atom   19 type  1   force =     0.00010375    0.00052926    0.00024274
     atom   20 type  1   force =    -0.00009730    0.00052200   -0.00023503
     atom   21 type  1   force =     0.00058308    0.00002230    0.00000938
     atom   22 type  1   force =    -0.00058158    0.00003056   -0.00001278
     atom   23 type  1   force =    -0.00058308   -0.00002230   -0.00000938
     atom   24 type  1   force =     0.00058158   -0.00003056    0.00001278
     atom   25 type  1   force =     0.00011570   -0.00046820    0.00035660
     atom   26 type  1   force =    -0.00013289   -0.00046424   -0.00034971
     atom   27 type  1   force =    -0.00011570    0.00046820   -0.00035660
     atom   28 type  1   force =     0.00013289    0.00046424    0.00034971
     atom   29 type  1   force =     0.00056361    0.00033984    0.00027073
     atom   30 type  1   force =    -0.00057496    0.00035543   -0.00028529
     atom   31 type  1   force =    -0.00056361   -0.00033984   -0.00027073
     atom   32 type  1   force =     0.00057496   -0.00035543    0.00028529
     atom   33 type  1   force =    -0.00006114   -0.00058593    0.00011265
     atom   34 type  1   force =     0.00004678   -0.00058361   -0.00011027
     atom   35 type  1   force =     0.00006114    0.00058593   -0.00011265
     atom   36 type  1   force =    -0.00004678    0.00058361    0.00011027
     atom   37 type  1   force =     0.00035092    0.00038980    0.00005493
     atom   38 type  1   force =    -0.00036028    0.00039339   -0.00005657
     atom   39 type  1   force =    -0.00035092   -0.00038980   -0.00005493
     atom   40 type  1   force =     0.00036028   -0.00039339    0.00005657
     atom   41 type  1   force =    -0.00017968   -0.00058106    0.00019520
     atom   42 type  1   force =     0.00015639   -0.00057121   -0.00018257
     atom   43 type  1   force =     0.00017968    0.00058106   -0.00019520
     atom   44 type  1   force =    -0.00015639    0.00057121    0.00018257
     atom   45 type  1   force =    -0.00019503   -0.00032845    0.00009665
     atom   46 type  1   force =     0.00017520   -0.00032144   -0.00008054
     atom   47 type  1   force =     0.00019503    0.00032845   -0.00009665
     atom   48 type  1   force =    -0.00017520    0.00032144    0.00008054
     atom   49 type  4   force =     0.00028668   -0.00035250   -0.00143664
     atom   50 type  4   force =    -0.00029484   -0.00030737    0.00141899
     atom   51 type  4   force =    -0.00028668    0.00035250    0.00143664
     atom   52 type  4   force =     0.00029484    0.00030737   -0.00141899
     atom   53 type  4   force =    -0.00067254    0.00094407    0.00008392
     atom   54 type  4   force =     0.00061382    0.00093700   -0.00007352
     atom   55 type  4   force =     0.00067254   -0.00094407   -0.00008392
     atom   56 type  4   force =    -0.00061382   -0.00093700    0.00007352
     atom   57 type  2   force =    -0.00032312    0.00010747    0.00006461
     atom   58 type  2   force =     0.00033024    0.00011058   -0.00005841
     atom   59 type  2   force =     0.00032312   -0.00010747   -0.00006461
     atom   60 type  2   force =    -0.00033024   -0.00011058    0.00005841
     atom   61 type  2   force =     0.00001839   -0.00001835   -0.00028677
     atom   62 type  2   force =    -0.00002093   -0.00002396    0.00028990
     atom   63 type  2   force =    -0.00001839    0.00001835    0.00028677
     atom   64 type  2   force =     0.00002093    0.00002396   -0.00028990
     atom   65 type  2   force =    -0.00002165    0.00044075   -0.00003468
     atom   66 type  2   force =     0.00001571    0.00043858    0.00003062
     atom   67 type  2   force =     0.00002165   -0.00044075    0.00003468
     atom   68 type  2   force =    -0.00001571   -0.00043858   -0.00003062
     atom   69 type  2   force =     0.00011700    0.00008630    0.00019500
     atom   70 type  2   force =    -0.00009380    0.00009282   -0.00018689
     atom   71 type  2   force =    -0.00011700   -0.00008630   -0.00019500
     atom   72 type  2   force =     0.00009380   -0.00009282    0.00018689
     atom   73 type  2   force =     0.00001989    0.00000082   -0.00015470
     atom   74 type  2   force =    -0.00001291    0.00000641    0.00014735
     atom   75 type  2   force =    -0.00001989   -0.00000082    0.00015470
     atom   76 type  2   force =     0.00001291   -0.00000641   -0.00014735
     atom   77 type  2   force =     0.00010451   -0.00009527    0.00014529
     atom   78 type  2   force =    -0.00012317   -0.00009552   -0.00014558
     atom   79 type  2   force =    -0.00010451    0.00009527   -0.00014529
     atom   80 type  2   force =     0.00012317    0.00009552    0.00014558
     atom   81 type  2   force =     0.00008271    0.00015049    0.00011048
     atom   82 type  2   force =    -0.00008819    0.00015933   -0.00012225
     atom   83 type  2   force =    -0.00008271   -0.00015049   -0.00011048
     atom   84 type  2   force =     0.00008819   -0.00015933    0.00012225
     atom   85 type  2   force =    -0.00000124   -0.00003445    0.00006967
     atom   86 type  2   force =    -0.00001719   -0.00003246   -0.00007066
     atom   87 type  2   force =     0.00000124    0.00003445   -0.00006967
     atom   88 type  2   force =     0.00001719    0.00003246    0.00007066
     atom   89 type  3   force =    -0.00055354    0.00049120   -0.00009798
     atom   90 type  3   force =     0.00051121    0.00050045    0.00008752
     atom   91 type  3   force =     0.00055354   -0.00049120    0.00009798
     atom   92 type  3   force =    -0.00051121   -0.00050045   -0.00008752
     SCF correction compared to forces is large: reduce conv_thr to get better values


     entering subroutine stress ...

          total   stress  (Ry/bohr**3)                   (kbar)     P=    0.03
   0.00000042  -0.00000028  -0.00000113          0.06     -0.04     -0.17
  -0.00000028   0.00000094   0.00000009         -0.04      0.14      0.01
  -0.00000113   0.00000009  -0.00000081         -0.17      0.01     -0.12


     Writing output data file fepxas.save
 
     init_run     :     89.84s CPU     91.56s WALL (       2 calls)
     electrons    :   5223.38s CPU   5286.23s WALL (       2 calls)
     forces       :     93.61s CPU     95.61s WALL (       2 calls)
     stress       :    244.95s CPU    248.85s WALL (       2 calls)

     Called by init_run:
     wfcinit      :     26.77s CPU     27.06s WALL (       2 calls)
     potinit      :     20.08s CPU     21.20s WALL (       2 calls)

     Called by electrons:
     c_bands      :   2172.66s CPU   2201.18s WALL (      81 calls)
     sum_band     :   1418.42s CPU   1430.91s WALL (      81 calls)
     v_of_rho     :     75.26s CPU     75.49s WALL (      83 calls)
     newd         :    737.30s CPU    739.70s WALL (      83 calls)
     mix_rho      :     44.02s CPU     46.60s WALL (      81 calls)

     Called by c_bands:
     init_us_2    :      8.57s CPU      8.64s WALL (     164 calls)
     cegterg      :   2152.18s CPU   2180.68s WALL (      81 calls)

     Called by *egterg:
     h_psi        :   1361.55s CPU   1370.33s WALL (     370 calls)
     s_psi        :    197.33s CPU    197.37s WALL (     370 calls)
     g_psi        :      5.44s CPU      5.42s WALL (     287 calls)
     cdiaghg      :    167.27s CPU    167.41s WALL (     368 calls)

     Called by h_psi:
     add_vuspsi   :    198.16s CPU    198.27s WALL (     370 calls)

     General routines
     calbec       :    279.20s CPU    282.56s WALL (     455 calls)
     fft          :     64.54s CPU     74.06s WALL (    2457 calls)
     ffts         :      4.11s CPU      4.14s WALL (     328 calls)
     fftw         :   1480.67s CPU   1490.71s WALL (  178610 calls)
     interpolate  :     13.87s CPU     13.90s WALL (     328 calls)
     davcio       :      0.00s CPU      8.48s WALL (      81 calls)
 
     Parallel routines
     fft_scatter  :    266.47s CPU    284.68s WALL (  181395 calls)
 
     PAW routines
     PAW_pot      :     38.81s CPU     44.21s WALL (      83 calls)
     PAW_ddot     :     25.63s CPU     27.99s WALL (    3077 calls)
     PAW_symme    :      0.02s CPU      0.03s WALL (     164 calls)
 
     PWSCF        :     1h34m CPU        1h35m WALL

 
   This run was terminated on:  23:14:42  25Oct2012            

=------------------------------------------------------------------------------=
   JOB DONE.
=------------------------------------------------------------------------------=
