
     Program PWSCF v.4.3.2      starts on  4Nov2012 at 18: 2:51 

     This program is part of the open-source Quantum ESPRESSO suite
     for quantum simulation of materials; please cite
         "P. Giannozzi et al., J. Phys.:Condens. Matter 21 395502 (2009);
          URL http://www.quantum-espresso.org", 
     in publications or presentations arising from this work. More details at
     http://www.quantum-espresso.org/wiki/index.php/Citing_Quantum-ESPRESSO

     Parallel version (MPI), running on    12 processors
     R & G space division:  proc/pool =   12

     Current dimensions of program PWSCF are:
     Max number of different atomic species (ntypx) = 10
     Max number of k-points (npk) =  40000
     Max angular momentum in pseudopotentials (lmaxx) =  3
     Waiting for input...
     Reading input from stdin
               file c.UPF: wavefunction(s)  2P renormalized
               file h.UPF: wavefunction(s)  1S renormalized
               file o.UPF: wavefunction(s)  2P renormalized
               file sb.UPF: wavefunction(s)  5S 5P renormalized

     Subspace diagonalization in iterative solution of the eigenvalue problem:
     a serial algorithm will be used

 
     Parallelization info
     --------------------
     sticks:   dense  smooth     PW     G-vecs:    dense   smooth      PW
     Min        1931    1287    339                70774    38506    5234
     Max        1932    1288    340                70775    38531    5235
     Sum       23175   15447   4077               849289   462223   62819
 

     Title: 
     fepxas                                                                     


     bravais-lattice index     =            0
     lattice parameter (alat)  =       1.0000  a.u.
     unit-cell volume          =    7363.3169 (a.u.)^3
     number of atoms/cell      =           92
     number of atomic types    =            4
     number of electrons       =       288.00
     number of Kohn-Sham states=          144
     kinetic-energy cutoff     =      60.0000  Ry
     charge density cutoff     =     360.0000  Ry
     convergence threshold     =      1.0E-07
     mixing beta               =       0.7000
     number of iterations used =            8  plain     mixing
     Exchange-correlation      =  NOX  PW   PW86 PBC ( 0 417 4 0)
     EXX-fraction              =        0.00
     nstep                     =           50


     celldm(1)=   1.000000  celldm(2)=   0.000000  celldm(3)=   0.000000
     celldm(4)=   0.000000  celldm(5)=   0.000000  celldm(6)=   0.000000

     crystal axes: (cart. coord. in units of alat)
               a(1) = (  24.871808  -0.002946  -2.351186 )  
               a(2) = (  -0.004121  32.393481  -0.007687 )  
               a(3) = (  -0.939271  -0.003060   9.227999 )  

     reciprocal axes: (cart. coord. in units 2 pi/alat)
               b(1) = (  0.040597  0.000006  0.004132 )  
               b(2) = (  0.000005  0.030870  0.000011 )  
               b(3) = (  0.010344  0.000027  0.109419 )  


     PseudoPot. # 1 for  C read from file:
     ./c.UPF
     MD5 check sum: 59d3a4af416b94ce846c69cefa103580
     Pseudo is Projector augmented-wave + core cor, Zval =  4.0
     Generated using "atomic" code by A. Dal Corso  (Quantum ESPRESSO distribution)
     Shape of augmentation charge: BESSEL
     Using radial grid of 1073 points,  4 beta functions with: 
                l(1) =   0
                l(2) =   0
                l(3) =   1
                l(4) =   1
     Q(r) pseudized with 0 coefficients 


     PseudoPot. # 2 for  H read from file:
     ./h.UPF
     MD5 check sum: 465503140a8a8e79e3a70d3488897feb
     Pseudo is Projector augmented-wave, Zval =  1.0
     Generated using "atomic" code by A. Dal Corso  (Quantum ESPRESSO distribution)
     Shape of augmentation charge: PSQ
     Using radial grid of  929 points,  2 beta functions with: 
                l(1) =   0
                l(2) =   0
     Q(r) pseudized with 0 coefficients 


     PseudoPot. # 3 for  O read from file:
     ./o.UPF
     MD5 check sum: 7b405463629fa2aaa019ec68516902cf
     Pseudo is Projector augmented-wave + core cor, Zval =  6.0
     Generated using "atomic" code by A. Dal Corso  (Quantum ESPRESSO distribution)
     Shape of augmentation charge: BESSEL
     Using radial grid of 1095 points,  4 beta functions with: 
                l(1) =   0
                l(2) =   0
                l(3) =   1
                l(4) =   1
     Q(r) pseudized with 0 coefficients 


     PseudoPot. # 4 for Sb read from file:
     ./sb.UPF
     MD5 check sum: eafba98ab4c7605221bb994336090a42
     Pseudo is Projector augmented-wave + core cor, Zval =  5.0
     Generated using "atomic" code by A. Dal Corso  (Quantum ESPRESSO distribution)
     Shape of augmentation charge: PSQ
     Using radial grid of 1243 points,  4 beta functions with: 
                l(1) =   0
                l(2) =   0
                l(3) =   1
                l(4) =   1
     Q(r) pseudized with 0 coefficients 


     atomic species   valence    mass     pseudopotential
        c              4.00    12.01070      C( 1.00)
        h              1.00     1.00794      H( 1.00)
        o              6.00    15.99940      O( 1.00)
        sb             5.00   121.76000     Sb( 1.00)

      2 Sym.Ops. (with inversion)


   Cartesian axes

     site n.     atom                  positions (alat units)
         1           c   tau(   1) = (  10.4783530  27.2106221   6.2168326  )
         2           c   tau(   2) = (  25.4114251  11.0119762   4.0839291  )
         3           c   tau(   3) = (  13.4500628   5.1768525   0.6522938  )
         4           c   tau(   4) = (  -1.4830094  21.3754983   2.7851973  )
         5           c   tau(   5) = (  11.7769478  28.7088371   4.4632038  )
         6           c   tau(   6) = (  24.1187393  12.5093143   5.8424996  )
         7           c   tau(   7) = (  12.1514679   3.6786374   2.4059226  )
         8           c   tau(   8) = (  -0.1903236  19.8781603   1.0266268  )
         9           c   tau(   9) = (  11.8144730  25.6679815   7.8849633  )
        10           c   tau(  10) = (  24.0717313   9.4691430   2.4192533  )
        11           c   tau(  11) = (  12.1139427   6.7194931  -1.0158369  )
        12           c   tau(  12) = (  -0.1433156  22.9183316   4.4498731  )
        13           c   tau(  13) = (  20.0100543   4.4685269   6.9198680  )
        14           c   tau(  14) = (  15.8900363  20.6645002   3.3933126  )
        15           c   tau(  15) = (   3.9183615  27.9189476  -0.0507416  )
        16           c   tau(  16) = (   8.0383794  11.7229744   3.4758138  )
        17           c   tau(  17) = (  18.6658568   3.2749670   4.9832741  )
        18           c   tau(  18) = (  17.2326909  19.4665659   5.3278183  )
        19           c   tau(  19) = (   5.2625589  29.1125076   1.8858524  )
        20           c   tau(  20) = (   6.6957248  12.9209087   1.5413081  )
        21           c   tau(  21) = (  14.4196835  28.7268481   4.4336678  )
        22           c   tau(  22) = (  21.4746825  12.5338356   5.8746310  )
        23           c   tau(  23) = (   9.5087322   3.6606265   2.4354587  )
        24           c   tau(  24) = (   2.4537332  19.8536390   0.9944954  )
        25           c   tau(  25) = (  21.3328785   3.0260092   8.6885252  )
        26           c   tau(  26) = (  14.5640957  19.2261103   1.6232438  )
        27           c   tau(  27) = (   2.5955372  29.3614653  -1.8193987  )
        28           c   tau(  28) = (   9.3643201  13.1613642   5.2458826  )
        29           c   tau(  29) = (  14.4526939  25.6580269   7.8365533  )
        30           c   tau(  30) = (  21.4334724   9.4612948   2.4748734  )
        31           c   tau(  31) = (   9.4757218   6.7294476  -0.9674268  )
        32           c   tau(  32) = (   2.4949433  22.9261798   4.3942530  )
        33           c   tau(  33) = (  18.6258405   0.6387253   4.8122941  )
        34           c   tau(  34) = (  17.2640611  16.8310539   5.4995057  )
        35           c   tau(  35) = (   5.3025752  31.7487493   2.0568323  )
        36           c   tau(  36) = (   6.6643546  15.5564206   1.3696207  )
        37           c   tau(  37) = (  15.7514328  27.2204503   6.1458221  )
        38           c   tau(  38) = (  20.1400788  11.0293820   4.1627934  )
        39           c   tau(  39) = (   8.1769829   5.1670242   0.7233043  )
        40           c   tau(  40) = (   3.7883369  21.3580926   2.7063330  )
        41           c   tau(  41) = (  21.3290635   0.3911937   8.5046856  )
        42           c   tau(  42) = (  14.5645253  16.5907773   1.8036346  )
        43           c   tau(  43) = (   2.5993523  31.9962808  -1.6355592  )
        44           c   tau(  44) = (   9.3638904  15.7966972   5.0654918  )
        45           c   tau(  45) = (  19.9565848  31.5953736   6.5738413  )
        46           c   tau(  46) = (  15.9276719  15.3973479   3.7289203  )
        47           c   tau(  47) = (   3.9718309   0.7921009   0.2952851  )
        48           c   tau(  48) = (   8.0007438  16.9901266   3.1402062  )
        49           sb  tau(  49) = (  16.7259178  30.9218324   1.7324441  )
        50           sb  tau(  50) = (  20.0994726  14.7276616  -0.6549628  )
        51           sb  tau(  51) = (   7.2024979   1.4656422   5.1366823  )
        52           sb  tau(  52) = (   3.8289431  17.6598130   7.5240892  )
        53           sb  tau(  53) = (  19.9171292  27.4546701   6.0428729  )
        54           sb  tau(  54) = (  15.9742493  11.2565052   4.2578837  )
        55           sb  tau(  55) = (   4.0112866   4.9328045   0.8262535  )
        56           sb  tau(  56) = (   7.9541665  21.1309694   2.6112427  )
        57           h   tau(  57) = (   8.4244163  27.2284600   6.2933467  )
        58           h   tau(  58) = (  27.4661620  11.0290262   4.0010061  )
        59           h   tau(  59) = (  15.5039995   5.1590146   0.5757797  )
        60           h   tau(  60) = (  -3.5377462  21.3584484   2.8681203  )
        61           h   tau(  61) = (  10.7198820  29.8291108   3.0919407  )
        62           h   tau(  62) = (  25.1805520  13.6220892   7.2163337  )
        63           h   tau(  63) = (  13.2085337   2.5583638   3.7771858  )
        64           h   tau(  64) = (  -1.2521363  18.7653854  -0.3472073  )
        65           h   tau(  65) = (  20.0594339   6.5214169   6.9920430  )
        66           h   tau(  66) = (  15.8472388  22.7175569   3.3228892  )
        67           h   tau(  67) = (   3.8689819  25.8660577  -0.1229166  )
        68           h   tau(  68) = (   8.0811769   9.6699176   3.5462373  )
        69           h   tau(  69) = (  11.7389525  24.5079003   0.0152010  )
        70           h   tau(  70) = (  25.0815439   8.3037928   1.0589108  )
        71           h   tau(  71) = (  12.1894633   7.8795743   6.8539255  )
        72           h   tau(  72) = (  -1.1531282  24.0836817   5.8102156  )
        73           h   tau(  73) = (  17.6798725   4.4389588   3.6063038  )
        74           h   tau(  74) = (  18.2267982  20.6264876   6.7024770  )
        75           h   tau(  75) = (   6.2485432  27.9485157   3.2628226  )
        76           h   tau(  76) = (   5.7016175  11.7609870   0.1666494  )
        77           h   tau(  77) = (  23.3002347   3.9439045   0.9887156  )
        78           h   tau(  78) = (  13.5383892  20.1448779   0.0957346  )
        79           h   tau(  79) = (   0.6281811  28.4435701   5.8804108  )
        80           h   tau(  80) = (  10.3900265  12.2425967   6.7733918  )
        81           h   tau(  81) = (  16.4368765  24.4907937  -0.0706110  )
        82           h   tau(  82) = (  20.3840131   8.2848099   1.1628075  )
        83           h   tau(  83) = (   7.4915392   7.8966809   6.9397374  )
        84           h   tau(  84) = (   3.5444027  24.1026646   5.7063190  )
        85           h   tau(  85) = (  23.3161558  31.6686448   0.6306997  )
        86           h   tau(  86) = (  13.5183045  15.4754184   0.4343007  )
        87           h   tau(  87) = (   0.6122599   0.7188298   6.2384268  )
        88           h   tau(  88) = (  10.4101112  16.9120562   6.4348258  )
        89           o   tau(  89) = (  19.5265498  28.1775285   2.1324758  )
        90           o   tau(  90) = (  17.3013814  11.9801344  -1.0584220  )
        91           o   tau(  91) = (   4.4018660   4.2099460   4.7366506  )
        92           o   tau(  92) = (   6.6270344  20.4073401   7.9275484  )

     number of k points=     1
                       cart. coord. in units 2pi/alat
        k(    1) = (  -0.0177148  -0.0154315   0.0252832), wk =   2.0000000

     Dense  grid:   849289 G-vectors     FFT dimensions: ( 160, 200,  60)

     Smooth grid:   462223 G-vectors     FFT dimensions: ( 125, 160,  45)

     Largest allocated arrays     est. size (Mb)     dimensions
        Kohn-Sham Wavefunctions        10.58 Mb     (   4815,  144)
        NL pseudopotentials            39.97 Mb     (   4815,  544)
        Each V/rho on FFT grid          2.44 Mb     ( 160000)
        Each G-vector array             0.54 Mb     (  70775)
        G-vector shells                 0.54 Mb     (  70775)
     Largest temporary arrays     est. size (Mb)     dimensions
        Auxiliary wavefunctions        42.32 Mb     (   4815,  576)
        Each subspace H/S matrix        5.06 Mb     ( 576, 576)
        Each <psi_i|beta_j> matrix      1.20 Mb     (    544,  144)
        Arrays for rho mixing          19.53 Mb     ( 160000,   8)

     Check: negative/imaginary core charge=   -0.000002    0.000000

     Initial potential from superposition of free atoms

     starting charge  287.99287, renormalised to  288.00000
     Starting wfc are  272 atomic wfcs
     Checking if some PAW data can be deallocated... 

     total cpu time spent up to now is       28.7 secs

     per-process dynamical memory:   133.8 Mb

     Self-consistent Calculation

     iteration #  1     ecut=    60.00 Ry     beta=0.70
     Davidson diagonalization with overlap
     ethr =  1.00E-02,  avg # of iterations =  9.0

     total cpu time spent up to now is       56.1 secs

     total energy              =   -3880.48180569 Ry
     Harris-Foulkes estimate   =   -3889.85229763 Ry
     estimated scf accuracy    <      70.25249454 Ry

     iteration #  2     ecut=    60.00 Ry     beta=0.70
     Davidson diagonalization with overlap
     ethr =  1.00E-02,  avg # of iterations =  5.0

     total cpu time spent up to now is       79.8 secs

     total energy              =   -3879.53071228 Ry
     Harris-Foulkes estimate   =   -3885.97007134 Ry
     estimated scf accuracy    <      35.08739044 Ry

     iteration #  3     ecut=    60.00 Ry     beta=0.70
     Davidson diagonalization with overlap
     ethr =  1.00E-02,  avg # of iterations =  5.0

     total cpu time spent up to now is      104.5 secs

     total energy              =   -3882.60701694 Ry
     Harris-Foulkes estimate   =   -3889.21065962 Ry
     estimated scf accuracy    <      23.30706189 Ry

     iteration #  4     ecut=    60.00 Ry     beta=0.70
     Davidson diagonalization with overlap
     ethr =  8.09E-03,  avg # of iterations =  3.0

     total cpu time spent up to now is      126.2 secs

     total energy              =   -3884.12275760 Ry
     Harris-Foulkes estimate   =   -3884.67784887 Ry
     estimated scf accuracy    <       0.99220521 Ry

     iteration #  5     ecut=    60.00 Ry     beta=0.70
     Davidson diagonalization with overlap
     ethr =  3.45E-04,  avg # of iterations =  5.0

     total cpu time spent up to now is      158.4 secs

     total energy              =   -3884.87670316 Ry
     Harris-Foulkes estimate   =   -3886.90888337 Ry
     estimated scf accuracy    <       8.78575387 Ry

     iteration #  6     ecut=    60.00 Ry     beta=0.70
     Davidson diagonalization with overlap
     ethr =  3.45E-04,  avg # of iterations =  5.0

     total cpu time spent up to now is      186.1 secs

     total energy              =   -3885.71719942 Ry
     Harris-Foulkes estimate   =   -3885.78782965 Ry
     estimated scf accuracy    <       0.17588288 Ry

     iteration #  7     ecut=    60.00 Ry     beta=0.70
     Davidson diagonalization with overlap
     ethr =  6.11E-05,  avg # of iterations =  7.0

     total cpu time spent up to now is      211.4 secs

     total energy              =   -3885.75334102 Ry
     Harris-Foulkes estimate   =   -3885.76464057 Ry
     estimated scf accuracy    <       0.07114665 Ry

     iteration #  8     ecut=    60.00 Ry     beta=0.70
     Davidson diagonalization with overlap
     ethr =  2.47E-05,  avg # of iterations =  6.0

     total cpu time spent up to now is      238.4 secs

     total energy              =   -3885.76817120 Ry
     Harris-Foulkes estimate   =   -3885.78533214 Ry
     estimated scf accuracy    <       0.08536832 Ry

     iteration #  9     ecut=    60.00 Ry     beta=0.70
     Davidson diagonalization with overlap
     ethr =  2.47E-05,  avg # of iterations =  2.0

     total cpu time spent up to now is      259.5 secs

     total energy              =   -3885.74896207 Ry
     Harris-Foulkes estimate   =   -3885.76937008 Ry
     estimated scf accuracy    <       0.04905897 Ry

     iteration # 10     ecut=    60.00 Ry     beta=0.70
     Davidson diagonalization with overlap
     ethr =  1.70E-05,  avg # of iterations =  7.0

     total cpu time spent up to now is      287.5 secs

     total energy              =   -3885.77312558 Ry
     Harris-Foulkes estimate   =   -3885.77852397 Ry
     estimated scf accuracy    <       0.05291357 Ry

     iteration # 11     ecut=    60.00 Ry     beta=0.70
     Davidson diagonalization with overlap
     ethr =  1.70E-05,  avg # of iterations =  1.0

     total cpu time spent up to now is      308.3 secs

     total energy              =   -3885.75784035 Ry
     Harris-Foulkes estimate   =   -3885.77370561 Ry
     estimated scf accuracy    <       0.04470894 Ry

     iteration # 12     ecut=    60.00 Ry     beta=0.70
     Davidson diagonalization with overlap
     ethr =  1.55E-05,  avg # of iterations = 10.0

     total cpu time spent up to now is      332.4 secs

     total energy              =   -3885.76076430 Ry
     Harris-Foulkes estimate   =   -3885.76238125 Ry
     estimated scf accuracy    <       0.00799905 Ry

     iteration # 13     ecut=    60.00 Ry     beta=0.70
     Davidson diagonalization with overlap
     ethr =  2.78E-06,  avg # of iterations =  6.0

     total cpu time spent up to now is      364.2 secs

     total energy              =   -3885.77001756 Ry
     Harris-Foulkes estimate   =   -3885.77363599 Ry
     estimated scf accuracy    <       0.02170845 Ry

     iteration # 14     ecut=    60.00 Ry     beta=0.70
     Davidson diagonalization with overlap
     ethr =  2.78E-06,  avg # of iterations =  1.0

     total cpu time spent up to now is      385.1 secs

     total energy              =   -3885.76067704 Ry
     Harris-Foulkes estimate   =   -3885.77010348 Ry
     estimated scf accuracy    <       0.01567127 Ry

     iteration # 15     ecut=    60.00 Ry     beta=0.70
     Davidson diagonalization with overlap
     ethr =  2.78E-06,  avg # of iterations =  6.0

     total cpu time spent up to now is      417.1 secs

     total energy              =   -3885.77363925 Ry
     Harris-Foulkes estimate   =   -3885.78293898 Ry
     estimated scf accuracy    <       0.07143926 Ry

     iteration # 16     ecut=    60.00 Ry     beta=0.70
     Davidson diagonalization with overlap
     ethr =  2.78E-06,  avg # of iterations =  3.0

     total cpu time spent up to now is      438.5 secs

     total energy              =   -3885.75887328 Ry
     Harris-Foulkes estimate   =   -3885.77382910 Ry
     estimated scf accuracy    <       0.05488680 Ry

     iteration # 17     ecut=    60.00 Ry     beta=0.70
     Davidson diagonalization with overlap
     ethr =  2.78E-06,  avg # of iterations =  6.0

     total cpu time spent up to now is      469.6 secs

     total energy              =   -3885.76999845 Ry
     Harris-Foulkes estimate   =   -3885.77017303 Ry
     estimated scf accuracy    <       0.00216938 Ry

     iteration # 18     ecut=    60.00 Ry     beta=0.70
     Davidson diagonalization with overlap
     ethr =  7.53E-07,  avg # of iterations =  1.0

     total cpu time spent up to now is      490.5 secs

     total energy              =   -3885.76955271 Ry
     Harris-Foulkes estimate   =   -3885.77002243 Ry
     estimated scf accuracy    <       0.00191867 Ry

     iteration # 19     ecut=    60.00 Ry     beta=0.70
     Davidson diagonalization with overlap
     ethr =  6.66E-07,  avg # of iterations =  8.0

     total cpu time spent up to now is      513.6 secs

     total energy              =   -3885.76961691 Ry
     Harris-Foulkes estimate   =   -3885.76972820 Ry
     estimated scf accuracy    <       0.00103040 Ry

     iteration # 20     ecut=    60.00 Ry     beta=0.70
     Davidson diagonalization with overlap
     ethr =  3.58E-07,  avg # of iterations =  7.0

     total cpu time spent up to now is      535.7 secs

     total energy              =   -3885.76930102 Ry
     Harris-Foulkes estimate   =   -3885.76966115 Ry
     estimated scf accuracy    <       0.00080235 Ry

     iteration # 21     ecut=    60.00 Ry     beta=0.70
     Davidson diagonalization with overlap
     ethr =  2.79E-07,  avg # of iterations =  6.0

     total cpu time spent up to now is      566.3 secs

     total energy              =   -3885.76998810 Ry
     Harris-Foulkes estimate   =   -3885.77003683 Ry
     estimated scf accuracy    <       0.00147665 Ry

     iteration # 22     ecut=    60.00 Ry     beta=0.70
     Davidson diagonalization with overlap
     ethr =  2.79E-07,  avg # of iterations =  1.0

     total cpu time spent up to now is      587.2 secs

     total energy              =   -3885.76980307 Ry
     Harris-Foulkes estimate   =   -3885.76999151 Ry
     estimated scf accuracy    <       0.00138262 Ry

     iteration # 23     ecut=    60.00 Ry     beta=0.70
     Davidson diagonalization with overlap
     ethr =  2.79E-07,  avg # of iterations =  1.0

     total cpu time spent up to now is      608.1 secs

     total energy              =   -3885.77041909 Ry
     Harris-Foulkes estimate   =   -3885.76981022 Ry
     estimated scf accuracy    <       0.00104985 Ry

     iteration # 24     ecut=    60.00 Ry     beta=0.70
     Davidson diagonalization with overlap
     ethr =  2.79E-07,  avg # of iterations =  1.0

     total cpu time spent up to now is      629.0 secs

     total energy              =   -3885.76991670 Ry
     Harris-Foulkes estimate   =   -3885.77043436 Ry
     estimated scf accuracy    <       0.00195906 Ry

     iteration # 25     ecut=    60.00 Ry     beta=0.70
     Davidson diagonalization with overlap
     ethr =  2.79E-07,  avg # of iterations =  1.0

     total cpu time spent up to now is      650.0 secs

     total energy              =   -3885.77004550 Ry
     Harris-Foulkes estimate   =   -3885.76992312 Ry
     estimated scf accuracy    <       0.00127417 Ry

     iteration # 26     ecut=    60.00 Ry     beta=0.70
     Davidson diagonalization with overlap
     ethr =  2.79E-07,  avg # of iterations =  1.0

     total cpu time spent up to now is      670.9 secs

     total energy              =   -3885.77023956 Ry
     Harris-Foulkes estimate   =   -3885.77005189 Ry
     estimated scf accuracy    <       0.00148757 Ry

     iteration # 27     ecut=    60.00 Ry     beta=0.70
     Davidson diagonalization with overlap
     ethr =  2.79E-07,  avg # of iterations =  2.0

     total cpu time spent up to now is      692.1 secs

     total energy              =   -3885.77069491 Ry
     Harris-Foulkes estimate   =   -3885.77024954 Ry
     estimated scf accuracy    <       0.00183768 Ry

     iteration # 28     ecut=    60.00 Ry     beta=0.70
     Davidson diagonalization with overlap
     ethr =  2.79E-07,  avg # of iterations =  6.0

     total cpu time spent up to now is      718.1 secs

     total energy              =   -3885.77114235 Ry
     Harris-Foulkes estimate   =   -3885.77101468 Ry
     estimated scf accuracy    <       0.00708677 Ry

     iteration # 29     ecut=    60.00 Ry     beta=0.70
     Davidson diagonalization with overlap
     ethr =  2.79E-07,  avg # of iterations =  1.0

     total cpu time spent up to now is      739.0 secs

     total energy              =   -3885.76942286 Ry
     Harris-Foulkes estimate   =   -3885.77115275 Ry
     estimated scf accuracy    <       0.00743018 Ry

     iteration # 30     ecut=    60.00 Ry     beta=0.70
     Davidson diagonalization with overlap
     ethr =  2.79E-07,  avg # of iterations =  6.0

     total cpu time spent up to now is      768.4 secs

     total energy              =   -3885.76978626 Ry
     Harris-Foulkes estimate   =   -3885.77025383 Ry
     estimated scf accuracy    <       0.00269637 Ry

     iteration # 31     ecut=    60.00 Ry     beta=0.70
     Davidson diagonalization with overlap
     ethr =  2.79E-07,  avg # of iterations =  1.0

     total cpu time spent up to now is      789.3 secs

     total energy              =   -3885.76908074 Ry
     Harris-Foulkes estimate   =   -3885.76979751 Ry
     estimated scf accuracy    <       0.00192491 Ry

     iteration # 32     ecut=    60.00 Ry     beta=0.70
     Davidson diagonalization with overlap
     ethr =  2.79E-07,  avg # of iterations =  6.0

     total cpu time spent up to now is      819.4 secs

     total energy              =   -3885.76991493 Ry
     Harris-Foulkes estimate   =   -3885.76999985 Ry
     estimated scf accuracy    <       0.00127294 Ry

     iteration # 33     ecut=    60.00 Ry     beta=0.70
     Davidson diagonalization with overlap
     ethr =  2.79E-07,  avg # of iterations =  1.0

     total cpu time spent up to now is      840.4 secs

     total energy              =   -3885.76962727 Ry
     Harris-Foulkes estimate   =   -3885.76991776 Ry
     estimated scf accuracy    <       0.00113050 Ry

     iteration # 34     ecut=    60.00 Ry     beta=0.70
     Davidson diagonalization with overlap
     ethr =  2.79E-07,  avg # of iterations =  7.0

     total cpu time spent up to now is      862.8 secs

     total energy              =   -3885.76946295 Ry
     Harris-Foulkes estimate   =   -3885.76965590 Ry
     estimated scf accuracy    <       0.00057849 Ry

     iteration # 35     ecut=    60.00 Ry     beta=0.70
     Davidson diagonalization with overlap
     ethr =  2.01E-07,  avg # of iterations =  6.0

     total cpu time spent up to now is      892.3 secs

     total energy              =   -3885.76983525 Ry
     Harris-Foulkes estimate   =   -3885.76997387 Ry
     estimated scf accuracy    <       0.00109149 Ry

     iteration # 36     ecut=    60.00 Ry     beta=0.70
     Davidson diagonalization with overlap
     ethr =  2.01E-07,  avg # of iterations =  1.0

     total cpu time spent up to now is      913.3 secs

     total energy              =   -3885.76973889 Ry
     Harris-Foulkes estimate   =   -3885.76983808 Ry
     estimated scf accuracy    <       0.00085407 Ry

     iteration # 37     ecut=    60.00 Ry     beta=0.70
     Davidson diagonalization with overlap
     ethr =  2.01E-07,  avg # of iterations =  3.0

     total cpu time spent up to now is      934.7 secs

     total energy              =   -3885.76967914 Ry
     Harris-Foulkes estimate   =   -3885.76975462 Ry
     estimated scf accuracy    <       0.00054652 Ry

     iteration # 38     ecut=    60.00 Ry     beta=0.70
     Davidson diagonalization with overlap
     ethr =  1.90E-07,  avg # of iterations =  1.0

     total cpu time spent up to now is      955.6 secs

     total energy              =   -3885.76952104 Ry
     Harris-Foulkes estimate   =   -3885.76968743 Ry
     estimated scf accuracy    <       0.00041521 Ry

     iteration # 39     ecut=    60.00 Ry     beta=0.70
     Davidson diagonalization with overlap
     ethr =  1.44E-07,  avg # of iterations =  6.0

     total cpu time spent up to now is      985.4 secs

     total energy              =   -3885.76979099 Ry
     Harris-Foulkes estimate   =   -3885.76995943 Ry
     estimated scf accuracy    <       0.00099309 Ry

     iteration # 40     ecut=    60.00 Ry     beta=0.70
     Davidson diagonalization with overlap
     ethr =  1.44E-07,  avg # of iterations =  1.0

     total cpu time spent up to now is     1006.4 secs

     total energy              =   -3885.76977169 Ry
     Harris-Foulkes estimate   =   -3885.76979489 Ry
     estimated scf accuracy    <       0.00071249 Ry

     iteration # 41     ecut=    60.00 Ry     beta=0.70
     Davidson diagonalization with overlap
     ethr =  1.44E-07,  avg # of iterations =  1.0

     total cpu time spent up to now is     1027.3 secs

     total energy              =   -3885.76975530 Ry
     Harris-Foulkes estimate   =   -3885.76977521 Ry
     estimated scf accuracy    <       0.00065915 Ry

     iteration # 42     ecut=    60.00 Ry     beta=0.70
     Davidson diagonalization with overlap
     ethr =  1.44E-07,  avg # of iterations =  1.0

     total cpu time spent up to now is     1048.3 secs

     total energy              =   -3885.76975690 Ry
     Harris-Foulkes estimate   =   -3885.76975878 Ry
     estimated scf accuracy    <       0.00059937 Ry

     iteration # 43     ecut=    60.00 Ry     beta=0.70
     Davidson diagonalization with overlap
     ethr =  1.44E-07,  avg # of iterations =  1.0

     total cpu time spent up to now is     1069.2 secs

     total energy              =   -3885.76963095 Ry
     Harris-Foulkes estimate   =   -3885.76976003 Ry
     estimated scf accuracy    <       0.00057905 Ry

     iteration # 44     ecut=    60.00 Ry     beta=0.70
     Davidson diagonalization with overlap
     ethr =  1.44E-07,  avg # of iterations =  9.0

     total cpu time spent up to now is     1093.3 secs

     total energy              =   -3885.76968931 Ry
     Harris-Foulkes estimate   =   -3885.76970019 Ry
     estimated scf accuracy    <       0.00015497 Ry

     iteration # 45     ecut=    60.00 Ry     beta=0.70
     Davidson diagonalization with overlap
     ethr =  5.38E-08,  avg # of iterations =  6.0

     total cpu time spent up to now is     1122.3 secs

     total energy              =   -3885.76979774 Ry
     Harris-Foulkes estimate   =   -3885.76981488 Ry
     estimated scf accuracy    <       0.00014381 Ry

     iteration # 46     ecut=    60.00 Ry     beta=0.70
     Davidson diagonalization with overlap
     ethr =  4.99E-08,  avg # of iterations =  1.0

     total cpu time spent up to now is     1143.2 secs

     total energy              =   -3885.76978477 Ry
     Harris-Foulkes estimate   =   -3885.76979827 Ry
     estimated scf accuracy    <       0.00011847 Ry

     iteration # 47     ecut=    60.00 Ry     beta=0.70
     Davidson diagonalization with overlap
     ethr =  4.11E-08,  avg # of iterations =  1.0

     total cpu time spent up to now is     1164.2 secs

     total energy              =   -3885.76974069 Ry
     Harris-Foulkes estimate   =   -3885.76978621 Ry
     estimated scf accuracy    <       0.00008769 Ry

     iteration # 48     ecut=    60.00 Ry     beta=0.70
     Davidson diagonalization with overlap
     ethr =  3.04E-08,  avg # of iterations =  6.0

     total cpu time spent up to now is     1194.4 secs

     total energy              =   -3885.76977795 Ry
     Harris-Foulkes estimate   =   -3885.76983047 Ry
     estimated scf accuracy    <       0.00024538 Ry

     iteration # 49     ecut=    60.00 Ry     beta=0.70
     Davidson diagonalization with overlap
     ethr =  3.04E-08,  avg # of iterations =  1.0

     total cpu time spent up to now is     1215.4 secs

     total energy              =   -3885.76978043 Ry
     Harris-Foulkes estimate   =   -3885.76977941 Ry
     estimated scf accuracy    <       0.00015910 Ry

     iteration # 50     ecut=    60.00 Ry     beta=0.70
     Davidson diagonalization with overlap
     ethr =  3.04E-08,  avg # of iterations =  1.0

     total cpu time spent up to now is     1236.3 secs

     total energy              =   -3885.76977121 Ry
     Harris-Foulkes estimate   =   -3885.76978116 Ry
     estimated scf accuracy    <       0.00016012 Ry

     iteration # 51     ecut=    60.00 Ry     beta=0.70
     Davidson diagonalization with overlap
     ethr =  3.04E-08,  avg # of iterations =  1.0

     total cpu time spent up to now is     1257.5 secs

     total energy              =   -3885.76976628 Ry
     Harris-Foulkes estimate   =   -3885.76977219 Ry
     estimated scf accuracy    <       0.00013660 Ry

     iteration # 52     ecut=    60.00 Ry     beta=0.70
     Davidson diagonalization with overlap
     ethr =  3.04E-08,  avg # of iterations =  1.0

     total cpu time spent up to now is     1278.5 secs

     total energy              =   -3885.76971569 Ry
     Harris-Foulkes estimate   =   -3885.76976743 Ry
     estimated scf accuracy    <       0.00012582 Ry

     iteration # 53     ecut=    60.00 Ry     beta=0.70
     Davidson diagonalization with overlap
     ethr =  3.04E-08,  avg # of iterations =  6.0

     total cpu time spent up to now is     1308.6 secs

     total energy              =   -3885.76978253 Ry
     Harris-Foulkes estimate   =   -3885.76983251 Ry
     estimated scf accuracy    <       0.00025296 Ry

     iteration # 54     ecut=    60.00 Ry     beta=0.70
     Davidson diagonalization with overlap
     ethr =  3.04E-08,  avg # of iterations =  1.0

     total cpu time spent up to now is     1329.6 secs

     total energy              =   -3885.76974890 Ry
     Harris-Foulkes estimate   =   -3885.76978363 Ry
     estimated scf accuracy    <       0.00017412 Ry

     iteration # 55     ecut=    60.00 Ry     beta=0.70
     Davidson diagonalization with overlap
     ethr =  3.04E-08,  avg # of iterations =  6.0

     total cpu time spent up to now is     1356.3 secs

     total energy              =   -3885.76978810 Ry
     Harris-Foulkes estimate   =   -3885.76979031 Ry
     estimated scf accuracy    <       0.00000776 Ry

     iteration # 56     ecut=    60.00 Ry     beta=0.70
     Davidson diagonalization with overlap
     ethr =  2.69E-09,  avg # of iterations =  4.0

     total cpu time spent up to now is     1379.0 secs

     total energy              =   -3885.76978779 Ry
     Harris-Foulkes estimate   =   -3885.76978915 Ry
     estimated scf accuracy    <       0.00000450 Ry

     iteration # 57     ecut=    60.00 Ry     beta=0.70
     Davidson diagonalization with overlap
     ethr =  1.56E-09,  avg # of iterations =  6.0

     total cpu time spent up to now is     1408.5 secs

     total energy              =   -3885.76979219 Ry
     Harris-Foulkes estimate   =   -3885.76979223 Ry
     estimated scf accuracy    <       0.00001064 Ry

     iteration # 58     ecut=    60.00 Ry     beta=0.70
     Davidson diagonalization with overlap
     ethr =  1.56E-09,  avg # of iterations =  1.0

     total cpu time spent up to now is     1429.4 secs

     total energy              =   -3885.76979092 Ry
     Harris-Foulkes estimate   =   -3885.76979221 Ry
     estimated scf accuracy    <       0.00001060 Ry

     iteration # 59     ecut=    60.00 Ry     beta=0.70
     Davidson diagonalization with overlap
     ethr =  1.56E-09,  avg # of iterations =  1.0

     total cpu time spent up to now is     1450.4 secs

     total energy              =   -3885.76978981 Ry
     Harris-Foulkes estimate   =   -3885.76979095 Ry
     estimated scf accuracy    <       0.00000877 Ry

     iteration # 60     ecut=    60.00 Ry     beta=0.70
     Davidson diagonalization with overlap
     ethr =  1.56E-09,  avg # of iterations =  4.0

     total cpu time spent up to now is     1472.4 secs

     total energy              =   -3885.76978972 Ry
     Harris-Foulkes estimate   =   -3885.76979005 Ry
     estimated scf accuracy    <       0.00000532 Ry

     iteration # 61     ecut=    60.00 Ry     beta=0.70
     Davidson diagonalization with overlap
     ethr =  1.56E-09,  avg # of iterations =  1.0

     total cpu time spent up to now is     1493.3 secs

     total energy              =   -3885.76978808 Ry
     Harris-Foulkes estimate   =   -3885.76978980 Ry
     estimated scf accuracy    <       0.00000468 Ry

     iteration # 62     ecut=    60.00 Ry     beta=0.70
     Davidson diagonalization with overlap
     ethr =  1.56E-09,  avg # of iterations =  7.0

     total cpu time spent up to now is     1520.6 secs

     total energy              =   -3885.76979023 Ry
     Harris-Foulkes estimate   =   -3885.76979120 Ry
     estimated scf accuracy    <       0.00000471 Ry

     iteration # 63     ecut=    60.00 Ry     beta=0.70
     Davidson diagonalization with overlap
     ethr =  1.56E-09,  avg # of iterations =  1.0

     total cpu time spent up to now is     1541.5 secs

     total energy              =   -3885.76978942 Ry
     Harris-Foulkes estimate   =   -3885.76979027 Ry
     estimated scf accuracy    <       0.00000324 Ry

     iteration # 64     ecut=    60.00 Ry     beta=0.70
     Davidson diagonalization with overlap
     ethr =  1.12E-09,  avg # of iterations =  6.0

     total cpu time spent up to now is     1567.9 secs

     total energy              =   -3885.76979033 Ry
     Harris-Foulkes estimate   =   -3885.76979066 Ry
     estimated scf accuracy    <       0.00000126 Ry

     iteration # 65     ecut=    60.00 Ry     beta=0.70
     Davidson diagonalization with overlap
     ethr =  4.38E-10,  avg # of iterations =  1.0

     total cpu time spent up to now is     1588.8 secs

     total energy              =   -3885.76979117 Ry
     Harris-Foulkes estimate   =   -3885.76979035 Ry
     estimated scf accuracy    <       0.00000078 Ry

     iteration # 66     ecut=    60.00 Ry     beta=0.70
     Davidson diagonalization with overlap
     ethr =  2.71E-10,  avg # of iterations =  8.0

     total cpu time spent up to now is     1624.7 secs

     total energy              =   -3885.76979134 Ry
     Harris-Foulkes estimate   =   -3885.76980642 Ry
     estimated scf accuracy    <       0.00009150 Ry

     iteration # 67     ecut=    60.00 Ry     beta=0.70
     Davidson diagonalization with overlap
     ethr =  2.71E-10,  avg # of iterations =  5.0

     total cpu time spent up to now is     1657.5 secs

     total energy              =   -3885.76978845 Ry
     Harris-Foulkes estimate   =   -3885.76979423 Ry
     estimated scf accuracy    <       0.00002664 Ry

     iteration # 68     ecut=    60.00 Ry     beta=0.70
     Davidson diagonalization with overlap
     ethr =  2.71E-10,  avg # of iterations =  8.0

     total cpu time spent up to now is     1689.5 secs

     total energy              =   -3885.76978920 Ry
     Harris-Foulkes estimate   =   -3885.76979066 Ry
     estimated scf accuracy    <       0.00000217 Ry

     iteration # 69     ecut=    60.00 Ry     beta=0.70
     Davidson diagonalization with overlap
     ethr =  2.71E-10,  avg # of iterations =  7.0

     total cpu time spent up to now is     1722.7 secs

     total energy              =   -3885.76978873 Ry
     Harris-Foulkes estimate   =   -3885.76979259 Ry
     estimated scf accuracy    <       0.00001122 Ry

     iteration # 70     ecut=    60.00 Ry     beta=0.70
     Davidson diagonalization with overlap
     ethr =  2.71E-10,  avg # of iterations =  8.0

     total cpu time spent up to now is     1755.0 secs

     total energy              =   -3885.76979044 Ry
     Harris-Foulkes estimate   =   -3885.76979043 Ry
     estimated scf accuracy    <       0.00000020 Ry

     iteration # 71     ecut=    60.00 Ry     beta=0.70
     Davidson diagonalization with overlap
     ethr =  6.80E-11,  avg # of iterations =  9.0

     total cpu time spent up to now is     1789.4 secs

     total energy              =   -3885.76979011 Ry
     Harris-Foulkes estimate   =   -3885.76979147 Ry
     estimated scf accuracy    <       0.00000520 Ry

     iteration # 72     ecut=    60.00 Ry     beta=0.70
     Davidson diagonalization with overlap
     ethr =  6.80E-11,  avg # of iterations =  8.0

     total cpu time spent up to now is     1821.4 secs

     total energy              =   -3885.76979026 Ry
     Harris-Foulkes estimate   =   -3885.76979050 Ry
     estimated scf accuracy    <       0.00000050 Ry

     iteration # 73     ecut=    60.00 Ry     beta=0.70
     Davidson diagonalization with overlap
     ethr =  6.80E-11,  avg # of iterations =  6.0

     total cpu time spent up to now is     1852.0 secs

     total energy              =   -3885.76979041 Ry
     Harris-Foulkes estimate   =   -3885.76979055 Ry
     estimated scf accuracy    <       0.00000047 Ry

     iteration # 74     ecut=    60.00 Ry     beta=0.70
     Davidson diagonalization with overlap
     ethr =  6.80E-11,  avg # of iterations =  3.0

     total cpu time spent up to now is     1873.4 secs

     total energy              =   -3885.76979041 Ry
     Harris-Foulkes estimate   =   -3885.76979042 Ry
     estimated scf accuracy    <       0.00000026 Ry

     iteration # 75     ecut=    60.00 Ry     beta=0.70
     Davidson diagonalization with overlap
     ethr =  6.80E-11,  avg # of iterations =  1.0

     total cpu time spent up to now is     1894.3 secs

     total energy              =   -3885.76979037 Ry
     Harris-Foulkes estimate   =   -3885.76979041 Ry
     estimated scf accuracy    <       0.00000023 Ry

     iteration # 76     ecut=    60.00 Ry     beta=0.70
     Davidson diagonalization with overlap
     ethr =  6.80E-11,  avg # of iterations = 14.0

     total cpu time spent up to now is     1918.3 secs

     total energy              =   -3885.76979041 Ry
     Harris-Foulkes estimate   =   -3885.76979039 Ry
     estimated scf accuracy    <       0.00000012 Ry

     iteration # 77     ecut=    60.00 Ry     beta=0.70
     Davidson diagonalization with overlap
     ethr =  4.09E-11,  avg # of iterations = 12.0

     total cpu time spent up to now is     1941.9 secs

     total energy              =   -3885.76979042 Ry
     Harris-Foulkes estimate   =   -3885.76979042 Ry
     estimated scf accuracy    <       0.00000011 Ry

     iteration # 78     ecut=    60.00 Ry     beta=0.70
     Davidson diagonalization with overlap
     ethr =  3.93E-11,  avg # of iterations = 13.0

     total cpu time spent up to now is     1965.0 secs

     End of self-consistent calculation

          k =-0.0177-0.0154 0.0253 ( 57808 PWs)   bands (ev):

   -15.0488 -15.0466 -15.0456 -15.0434 -13.9820 -13.9817 -13.9630 -13.9628
   -13.9315 -13.9313 -13.8882 -13.8878 -11.3048 -11.3048 -11.2681 -11.2673
   -11.2139 -11.2136 -11.1863 -11.1857 -11.1739 -11.1731 -11.1128 -11.1128
   -10.9620 -10.9616 -10.9497 -10.9495  -7.8782  -7.8767  -7.8426  -7.8415
    -7.8180  -7.8162  -7.7469  -7.7460  -7.5066  -7.5064  -7.4890  -7.4875
    -7.2454  -7.2452  -7.1978  -7.1974  -6.4519  -6.4512  -6.1569  -6.1565
    -5.8050  -5.8041  -5.7205  -5.7198  -5.2878  -5.2875  -5.1799  -5.1797
    -4.3466  -4.3460  -4.2713  -4.2708  -3.8888  -3.8882  -3.8488  -3.8484
    -3.7691  -3.7682  -3.7153  -3.7147  -3.6274  -3.6254  -3.5225  -3.5206
    -3.4857  -3.4837  -3.3181  -3.3148  -2.7221  -2.7216  -2.6738  -2.6729
    -2.6308  -2.6305  -2.4737  -2.4729  -2.3898  -2.3893  -2.2162  -2.2153
    -2.1216  -2.1213  -1.9820  -1.9796  -1.8663  -1.8654  -1.7587  -1.7570
    -1.6034  -1.6020  -1.4949  -1.4945  -1.0030  -1.0014  -0.9230  -0.9217
    -0.5715  -0.5707  -0.5321  -0.5308  -0.2749  -0.2745  -0.2060  -0.2051
     0.1654   0.1660   0.3120   0.3132   0.4060   0.4068   0.4970   0.4991
     0.7023   0.7032   0.7545   0.7556   0.8678   0.8688   0.9121   0.9129
     1.0271   1.0272   1.0604   1.0612   1.1912   1.1932   1.2588   1.2600
     1.3363   1.3373   1.4081   1.4091   1.8109   1.8119   1.8802   1.8806
 TIME (initial):        0.0
* Atoms contributing density to the main cell
  Number of atoms:   40572
 
 TIME (set up the environment):        0.1
 DOCALC: T F T T
 ESAVE:       0.000000000000       0.000000000000       0.000000000000
* XDM: using PAW all-electron density reconstruction? T
 TIME (promolecular grid):       58.1
 TIME (calculation of b grid):       59.4
 TIME (calculation of volumes and moments):      420.3
 
+ Volume and moments
# All results in atomic units.
# i              V                  Vfree                 M1                  M2                  M3
  1        32.7889596578        39.0349749523         4.1752761285        55.6273076554      1031.8028508884
  2        32.7878470164        39.0349749523         4.1755410844        55.6338996906      1031.9846506566
  3        32.7889596578        39.0349749523         4.1752761285        55.6273076554      1031.8028508884
  4        32.7878470164        39.0349749523         4.1755410844        55.6338996906      1031.9846506566
  5        33.0729851233        39.0349749523         4.1439076498        55.0520440676      1019.4054213070
  6        33.0717716219        39.0349749523         4.1452428864        55.0687597787      1019.6578536855
  7        33.0729851233        39.0349749523         4.1439076498        55.0520440676      1019.4054213070
  8        33.0717716219        39.0349749523         4.1452428864        55.0687597787      1019.6578536855
  9        32.6945337519        39.0349749523         4.1116898978        54.4709910740      1013.8275907484
 10        32.6927198327        39.0349749523         4.1118640478        54.4733631443      1013.9516014563
 11        32.6945337519        39.0349749523         4.1116898978        54.4709910740      1013.8275907484
 12        32.6927198327        39.0349749523         4.1118640478        54.4733631443      1013.9516014563
 13        32.4518539990        39.0349749523         4.1055320749        53.7595522300       988.2612696505
 14        32.4508805438        39.0349749523         4.1057546833        53.7615637381       988.2126922614
 15        32.4518539990        39.0349749523         4.1055320749        53.7595522300       988.2612696505
 16        32.4508805438        39.0349749523         4.1057546833        53.7615637381       988.2126922614
 17        32.7209582934        39.0349749523         4.0952882281        53.5862072442       982.0973343762
 18        32.7207299944        39.0349749523         4.0943641624        53.5782493492       982.0606723529
 19        32.7209582934        39.0349749523         4.0952882281        53.5862072442       982.0973343762
 20        32.7207299944        39.0349749523         4.0943641624        53.5782493492       982.0606723529
 21        33.6859109570        39.0349749523         3.8717605071        50.9023101597       961.8193363610
 22        33.6861858000        39.0349749523         3.8747430217        50.9364652185       962.1595169391
 23        33.6859109570        39.0349749523         3.8717605071        50.9023101597       961.8193363610
 24        33.6861858000        39.0349749523         3.8747430217        50.9364652185       962.1595169391
 25        32.6492074861        39.0349749523         4.0668169117        53.3532498189       981.7697411570
 26        32.6502862939        39.0349749523         4.0671221163        53.3530134632       981.6370992152
 27        32.6492074861        39.0349749523         4.0668169117        53.3532498189       981.7697411570
 28        32.6502862939        39.0349749523         4.0671221163        53.3530134632       981.6370992152
 29        32.9819222209        39.0349749523         3.9780087231        52.3050215573       975.5266366240
 30        32.9826173202        39.0349749523         3.9774374381        52.3012874722       975.5730666309
 31        32.9819222209        39.0349749523         3.9780087231        52.3050215573       975.5266366240
 32        32.9826173202        39.0349749523         3.9774374381        52.3012874722       975.5730666309
 33        33.6186820740        39.0349749523         3.8653305705        50.4731482273       944.7364930665
 34        33.6188249449        39.0349749523         3.8633103988        50.4517653836       944.5555558306
 35        33.6186820740        39.0349749523         3.8653305705        50.4731482273       944.7364930665
 36        33.6188249449        39.0349749523         3.8633103988        50.4517653836       944.5555558306
 37        33.7262377988        39.0349749523         3.7507282989        49.4288612969       943.3107580206
 38        33.7278723480        39.0349749523         3.7500023211        49.4258838082       943.3666369739
 39        33.7262377988        39.0349749523         3.7507282989        49.4288612969       943.3107580206
 40        33.7278723480        39.0349749523         3.7500023211        49.4258838082       943.3666369739
 41        33.0787697346        39.0349749523         3.9856685604        52.2451688562       961.6632436053
 42        33.0827174812        39.0349749523         3.9854525095        52.2404836227       961.5168939038
 43        33.0787697346        39.0349749523         3.9856685604        52.2451688562       961.6632436053
 44        33.0827174812        39.0349749523         3.9854525095        52.2404836227       961.5168939038
 45        33.7688651352        39.0349749523         3.7674103835        49.5013594375       936.1498869091
 46        33.7699163572        39.0349749523         3.7677946301        49.5003550519       936.0101771168
 47        33.7688651352        39.0349749523         3.7674103835        49.5013594375       936.1498869091
 48        33.7699163572        39.0349749523         3.7677946301        49.5003550519       936.0101771168
 49       135.0591041744       174.2312296757         8.7130559319       218.8186565455      6022.1493583309
 50       135.0587663140       174.2312296757         8.7144077535       218.8454804019      6022.2567745304
 51       135.0591041744       174.2312296757         8.7130559319       218.8186565455      6022.1493583310
 52       135.0587663140       174.2312296757         8.7144077535       218.8454804019      6022.2567745303
 53       133.5774279293       174.2312296757         9.0274803543       224.0135194789      6067.8835152244
 54       133.5842704822       174.2312296757         9.0243962499       223.9373370750      6066.3334253347
 55       133.5774279293       174.2312296757         9.0274803543       224.0135194789      6067.8835152244
 56       133.5842704822       174.2312296757         9.0243962499       223.9373370750      6066.3334253347
 57         7.7777020309        10.4882987305         1.6302493935        15.1855222740       297.6128236207
 58         7.7760868632        10.4882987305         1.6310485304        15.1890566082       297.6533798125
 59         7.7777020309        10.4882987305         1.6302493935        15.1855222740       297.6128236207
 60         7.7760868632        10.4882987305         1.6310485304        15.1890566082       297.6533798125
 61         7.9547599929        10.4882987305         1.6358297489        15.1956893730       297.1773220788
 62         7.9538735637        10.4882987305         1.6358135113        15.1976076822       297.2322922657
 63         7.9547599929        10.4882987305         1.6358297489        15.1956893730       297.1773220788
 64         7.9538735637        10.4882987305         1.6358135113        15.1976076822       297.2322922657
 65         7.8412233016        10.4882987305         1.5868932180        14.5814811972       284.6361792521
 66         7.8401069083        10.4882987305         1.5873121929        14.5821324645       284.5986980223
 67         7.8412233016        10.4882987305         1.5868932180        14.5814811972       284.6361792521
 68         7.8401069083        10.4882987305         1.5873121929        14.5821324645       284.5986980223
 69         7.9149087038        10.4882987305         1.6503208559        15.2259086382       295.1220988792
 70         7.9147151382        10.4882987305         1.6502625432        15.2277863322       295.1932254700
 71         7.9149087038        10.4882987305         1.6503208559        15.2259086382       295.1220988792
 72         7.9147151382        10.4882987305         1.6502625432        15.2277863322       295.1932254700
 73         7.8320910633        10.4882987305         1.5905875546        14.6401196380       287.5095577072
 74         7.8313396508        10.4882987305         1.5905691828        14.6404930118       287.5550598796
 75         7.8320910633        10.4882987305         1.5905875546        14.6401196380       287.5095577072
 76         7.8313396508        10.4882987305         1.5905691828        14.6404930118       287.5550598796
 77         7.8068459834        10.4882987305         1.5917759273        14.6344859980       286.5565340137
 78         7.8065091801        10.4882987305         1.5917055448        14.6321441577       286.4945666140
 79         7.8068459834        10.4882987305         1.5917759273        14.6344859980       286.5565340137
 80         7.8065091801        10.4882987305         1.5917055448        14.6321441577       286.4945666140
 81         7.9502862763        10.4882987305         1.5617911329        14.3092840945       281.3819107717
 82         7.9505022441        10.4882987305         1.5618804410        14.3091940587       281.4000659557
 83         7.9502862763        10.4882987305         1.5617911329        14.3092840945       281.3819107717
 84         7.9505022441        10.4882987305         1.5618804410        14.3091940587       281.4000659557
 85         7.9505473379        10.4882987305         1.5589747697        14.2680500260       278.3297533966
 86         7.9534549790        10.4882987305         1.5584857797        14.2645640650       278.2682236146
 87         7.9505473379        10.4882987305         1.5589747697        14.2680500260       278.3297533966
 88         7.9534549790        10.4882987305         1.5584857797        14.2645640650       278.2682236146
 89        22.2013648563        23.7788846669         4.6883406863        34.4989858487       334.4207039829
 90        22.2032309067        23.7788846669         4.6889883409        34.5029938430       334.4239393766
 91        22.2013648563        23.7788846669         4.6883406863        34.4989858487       334.4207039829
 92        22.2032309067        23.7788846669         4.6889883409        34.5029938430       334.4239393766
 
+ Dispersion coefficients
# All results in atomic units.
# i   j              C6                  C8                  C10                   Rc                  Rvdw
  1   1        20.8275513473       832.4579530778     36114.9910373355         6.4539132267         7.1884696277
  2   1        20.8278587632       832.4931505418     36117.5392106777         6.4540032676         7.1885060492
  2   2        20.8281662331       832.5283508375     36120.0875840654         6.4540933068         7.1885424701
  3   1        20.8275513473       832.4579530778     36114.9910373357         6.4539132267         7.1884696277
  3   2        20.8278587632       832.4931505418     36117.5392106780         6.4540032676         7.1885060492
  3   3        20.8275513473       832.4579530778     36114.9910373360         6.4539132267         7.1884696277
  4   1        20.8278587632       832.4931505418     36117.5392106776         6.4540032676         7.1885060492
  4   2        20.8281662331       832.5283508375     36120.0875840654         6.4540933068         7.1885424701
  4   3        20.8278587632       832.4931505418     36117.5392106779         6.4540032676         7.1885060492
  4   4        20.8281662331       832.5283508375     36120.0875840653         6.4540933068         7.1885424701
  5   1        20.8381585588       831.6951034044     36042.3888035666         6.4498534351         7.1868274420
  5   2        20.8384579294       831.7299739085     36044.9203073999         6.4499435374         7.1868638884
  5   3        20.8381585588       831.6951034044     36042.3888035668         6.4498534351         7.1868274420
  5   4        20.8384579294       831.7299739085     36044.9203073999         6.4499435374         7.1868638884
  5   5        20.8501333884       830.9855521349     35972.1796847147         6.4457916376         7.1851844449
  6   1        20.8411630235       831.8073030400     36046.5330381071         6.4498061242         7.1868083047
  6   2        20.8414626192       831.8421857285     36049.0651909258         6.4498962278         7.1868447516
  6   3        20.8411630235       831.8073030400     36046.5330381074         6.4498061242         7.1868083047
  6   4        20.8414626192       831.8421857285     36049.0651909257         6.4498962278         7.1868447516
  6   5        20.8531093361       831.0964396859     35976.2618356160         6.4457442728         7.1851652858
  6   6        20.8560863800       831.2073687225     35980.3455826956         6.4456969072         7.1851461265
  7   1        20.8381585588       831.6951034044     36042.3888035667         6.4498534351         7.1868274420
  7   2        20.8384579294       831.7299739085     36044.9203074001         6.4499435374         7.1868638884
  7   3        20.8381585588       831.6951034044     36042.3888035670         6.4498534351         7.1868274420
  7   4        20.8384579294       831.7299739085     36044.9203074000         6.4499435374         7.1868638884
  7   5        20.8501333884       830.9855521349     35972.1796847149         6.4457916376         7.1851844449
  7   6        20.8531093361       831.0964396859     35976.2618356161         6.4457442728         7.1851652858
  7   7        20.8501333884       830.9855521349     35972.1796847150         6.4457916376         7.1851844449
  8   1        20.8411630235       831.8073030400     36046.5330381072         6.4498061242         7.1868083047
  8   2        20.8414626192       831.8421857285     36049.0651909259         6.4498962278         7.1868447516
  8   3        20.8411630235       831.8073030400     36046.5330381075         6.4498061242         7.1868083047
  8   4        20.8414626192       831.8421857285     36049.0651909258         6.4498962278         7.1868447516
  8   5        20.8531093361       831.0964396859     35976.2618356161         6.4457442728         7.1851652858
  8   6        20.8560863800       831.2073687225     35980.3455826957         6.4456969072         7.1851461265
  8   7        20.8531093361       831.0964396859     35976.2618356162         6.4457442728         7.1851652858
  8   8        20.8560863800       831.2073687225     35980.3455826958         6.4456969072         7.1851461265
  9   1        20.6381665640       822.5607603710     35677.0609194351         6.4490268199         7.1864930761
  9   2        20.6384649224       822.5953538317     35679.5686999241         6.4491168506         7.1865294936
  9   3        20.6381665640       822.5607603710     35677.0609194354         6.4490268199         7.1864930761
  9   4        20.6384649224       822.5953538317     35679.5686999240         6.4491168506         7.1865294936
  9   5        20.6497173629       821.8450546835     35607.1040379077         6.4449692122         7.1848517738
  9   6        20.6526715676       821.9549849284     35611.1568248196         6.4449218582         7.1848326191
  9   7        20.6497173629       821.8450546835     35607.1040379078         6.4449692122         7.1848517738
  9   8        20.6526715676       821.9549849284     35611.1568248197         6.4449218582         7.1848326191
  9   9        20.4512979175       812.8062869623     35245.9629951814         6.4441533947         7.1845217756
 10   1        20.6380373577       822.5560997435     35677.6696111474         6.4490649233         7.1865084889
 10   2        20.6383357634       822.5906949541     35680.1774739587         6.4491549525         7.1865449058
 10   3        20.6380373577       822.5560997435     35677.6696111477         6.4490649233         7.1865084889
 10   4        20.6383357634       822.5906949541     35680.1774739586         6.4491549525         7.1865449058
 10   5        20.6495799192       821.8400738496     35607.6995017340         6.4450073874         7.1848672157
 10   6        20.6525342856       821.9500106472     35611.7526930017         6.4449600342         7.1848480613
 10   7        20.6495799192       821.8400738496     35607.6995017341         6.4450073874         7.1848672157
 10   8        20.6525342856       821.9500106472     35611.7526930018         6.4449600342         7.1848480613
 10   9        20.4511636472       812.8014352205     35246.5560062699         6.4441915969         7.1845372284
 10  10        20.4510294267       812.7965854525     35247.1490924198         6.4442297985         7.1845526810
 11   1        20.6381665640       822.5607603710     35677.0609194354         6.4490268199         7.1864930761
 11   2        20.6384649224       822.5953538318     35679.5686999243         6.4491168506         7.1865294936
 11   3        20.6381665640       822.5607603710     35677.0609194357         6.4490268199         7.1864930761
 11   4        20.6384649224       822.5953538318     35679.5686999243         6.4491168506         7.1865294936
 11   5        20.6497173629       821.8450546835     35607.1040379079         6.4449692122         7.1848517738
 11   6        20.6526715676       821.9549849284     35611.1568248199         6.4449218582         7.1848326191
 11   7        20.6497173629       821.8450546835     35607.1040379081         6.4449692122         7.1848517738
 11   8        20.6526715676       821.9549849284     35611.1568248200         6.4449218582         7.1848326191
 11   9        20.4512979175       812.8062869623     35245.9629951817         6.4441533947         7.1845217756
 11  10        20.4511636472       812.8014352205     35246.5560062702         6.4441915969         7.1845372284
 11  11        20.4512979175       812.8062869623     35245.9629951820         6.4441533947         7.1845217756
 12   1        20.6380373577       822.5560997435     35677.6696111475         6.4490649233         7.1865084889
 12   2        20.6383357634       822.5906949541     35680.1774739588         6.4491549525         7.1865449058
 12   3        20.6380373577       822.5560997435     35677.6696111478         6.4490649233         7.1865084889
 12   4        20.6383357634       822.5906949541     35680.1774739587         6.4491549525         7.1865449058
 12   5        20.6495799192       821.8400738496     35607.6995017341         6.4450073874         7.1848672157
 12   6        20.6525342856       821.9500106472     35611.7526930018         6.4449600342         7.1848480613
 12   7        20.6495799192       821.8400738496     35607.6995017342         6.4450073874         7.1848672157
 12   8        20.6525342856       821.9500106472     35611.7526930019         6.4449600342         7.1848480613
 12   9        20.4511636472       812.8014352205     35246.5560062700         6.4441915969         7.1845372284
 12  10        20.4510294267       812.7965854525     35247.1490924199         6.4442297985         7.1845526810
 12  11        20.4511636472       812.8014352205     35246.5560062703         6.4441915969         7.1845372284
 12  12        20.4510294267       812.7965854525     35247.1490924200         6.4442297985         7.1845526810
 13   1        20.5463165112       814.1717070739     35101.1971539480         6.4300052806         7.1787988635
 13   2        20.5466165190       814.2061962027     35103.6831218894         6.4300956691         7.1788354256
 13   3        20.5463165112       814.1717070739     35101.1971539483         6.4300052806         7.1787988635
 13   4        20.5466165190       814.2061962027     35103.6831218893         6.4300956691         7.1788354256
 13   5        20.5573214241       813.4369741668     35030.9785161472         6.4259344980         7.1771522319
 13   6        20.5602733883       813.5461701166     35034.9755158394         6.4258868722         7.1771329673
 13   7        20.5573214241       813.4369741668     35030.9785161473         6.4259344980         7.1771522319
 13   8        20.5602733883       813.5461701166     35034.9755158395         6.4258868722         7.1771329673
 13   9        20.3599019935       804.4885404814     34676.1377515995         6.4251338262         7.1768283602
 13  10        20.3597712870       804.4838582911     34676.7356601501         6.4251723577         7.1768439462
 13  11        20.3599019935       804.4885404814     34676.1377515998         6.4251338262         7.1768283602
 13  12        20.3597712870       804.4838582911     34676.7356601502         6.4251723577         7.1768439462
 13  13        20.2690940013       796.2359551088     34113.0074052660         6.4060376917         7.1691039738
 14   1        20.5465681554       814.1748972390     35100.3515694966         6.4299464233         7.1787750557
 14   2        20.5468682090       814.2093883607     35102.8376073136         6.4300368137         7.1788116186
 14   3        20.5465681554       814.1748972390     35100.3515694968         6.4299464233         7.1787750557
 14   4        20.5468682090       814.2093883607     35102.8376073135         6.4300368137         7.1788116186
 14   5        20.5575662059       813.4398748326     35030.1201867613         6.4258755598         7.1771283914
 14   6        20.5605183606       813.5490772550     35034.1173202798         6.4258279330         7.1771091264
 14   7        20.5575662059       813.4398748326     35030.1201867613         6.4258755598         7.1771283914
 14   8        20.5605183606       813.5490772550     35034.1173202799         6.4258279330         7.1771091264
 14   9        20.3601460123       804.4914624899     34675.2908499652         6.4250748852         7.1768045186
 14  10        20.3600153462       804.4867819438     34675.8888449173         6.4251134176         7.1768201049
 14  11        20.3601460123       804.4914624899     34675.2908499655         6.4250748852         7.1768045186
 14  12        20.3600153462       804.4867819438     34675.8888449174         6.4251134176         7.1768201049
 14  13        20.2693394715       796.2389079536     34112.1665336022         6.4059783579         7.1690799732
 14  14        20.2695849807       796.2418621650     34111.3257011744         6.4059190228         7.1690559722
 15   1        20.5463165112       814.1717070739     35101.1971539482         6.4300052806         7.1787988635
 15   2        20.5466165190       814.2061962027     35103.6831218896         6.4300956691         7.1788354256
 15   3        20.5463165112       814.1717070739     35101.1971539485         6.4300052806         7.1787988635
 15   4        20.5466165190       814.2061962027     35103.6831218895         6.4300956691         7.1788354256
 15   5        20.5573214241       813.4369741668     35030.9785161474         6.4259344980         7.1771522319
 15   6        20.5602733883       813.5461701166     35034.9755158396         6.4258868722         7.1771329673
 15   7        20.5573214241       813.4369741668     35030.9785161475         6.4259344980         7.1771522319
 15   8        20.5602733883       813.5461701166     35034.9755158397         6.4258868722         7.1771329673
 15   9        20.3599019935       804.4885404814     34676.1377515997         6.4251338262         7.1768283602
 15  10        20.3597712870       804.4838582911     34676.7356601503         6.4251723577         7.1768439462
 15  11        20.3599019935       804.4885404814     34676.1377515999         6.4251338262         7.1768283602
 15  12        20.3597712870       804.4838582911     34676.7356601504         6.4251723577         7.1768439462
 15  13        20.2690940013       796.2359551088     34113.0074052662         6.4060376917         7.1691039738
 15  14        20.2693394715       796.2389079536     34112.1665336023         6.4059783579         7.1690799732
 15  15        20.2690940013       796.2359551088     34113.0074052664         6.4060376917         7.1691039738
 16   1        20.5465681554       814.1748972390     35100.3515694968         6.4299464233         7.1787750557
 16   2        20.5468682090       814.2093883607     35102.8376073139         6.4300368137         7.1788116186
 16   3        20.5465681554       814.1748972390     35100.3515694971         6.4299464233         7.1787750557
 16   4        20.5468682090       814.2093883607     35102.8376073138         6.4300368137         7.1788116186
 16   5        20.5575662059       813.4398748326     35030.1201867615         6.4258755598         7.1771283914
 16   6        20.5605183606       813.5490772550     35034.1173202801         6.4258279330         7.1771091264
 16   7        20.5575662059       813.4398748326     35030.1201867616         6.4258755598         7.1771283914
 16   8        20.5605183606       813.5490772550     35034.1173202802         6.4258279330         7.1771091264
 16   9        20.3601460123       804.4914624899     34675.2908499655         6.4250748852         7.1768045186
 16  10        20.3600153462       804.4867819438     34675.8888449175         6.4251134176         7.1768201049
 16  11        20.3601460123       804.4914624899     34675.2908499657         6.4250748852         7.1768045186
 16  12        20.3600153462       804.4867819438     34675.8888449176         6.4251134177         7.1768201049
 16  13        20.2693394715       796.2389079536     34112.1665336024         6.4059783579         7.1690799732
 16  14        20.2695849807       796.2418621650     34111.3257011746         6.4059190228         7.1690559722
 16  15        20.2693394715       796.2389079536     34112.1665336026         6.4059783579         7.1690799732
 16  16        20.2695849807       796.2418621650     34111.3257011749         6.4059190228         7.1690559722
 17   1        20.6049161500       816.1978826433     35153.0569367585         6.4277861482         7.1779012244
 17   2        20.6052116173       816.2322520588     35155.5394760584         6.4278766025         7.1779378132
 17   3        20.6049161500       816.1978826433     35153.0569367588         6.4277861482         7.1779012244
 17   4        20.6052116173       816.2322520588     35155.5394760584         6.4278766025         7.1779378132
 17   5        20.6168486929       815.4963464917     35084.1688188737         6.4237125163         7.1762534403
 17   6        20.6197893068       815.6050290601     35088.1368087591         6.4236648525         7.1762341603
 17   7        20.6168486929       815.4963464917     35084.1688188738         6.4237125163         7.1762534403
 17   8        20.6197893068       815.6050290601     35088.1368087591         6.4236648525         7.1762341603
 17   9        20.4186542322       806.5168115478     34728.4485614373         6.4229119905         7.1759296276
 17  10        20.4185177766       806.5119055412     34729.0393519994         6.4229505572         7.1759452279
 17  11        20.4186542322       806.5168115478     34728.4485614376         6.4229119905         7.1759296276
 17  12        20.4185177766       806.5119055412     34729.0393519995         6.4229505572         7.1759452279
 17  13        20.3272588688       798.2289443951     34163.4848166165         6.4038018181         7.1681995629
 17  14        20.3275004400       798.2317214038     34162.6334008332         6.4037424343         7.1681755422
 17  15        20.3272588688       798.2289443951     34163.4848166167         6.4038018181         7.1681995629
 17  16        20.3275004400       798.2317214038     34162.6334008335         6.4037424343         7.1681755422
 17  17        20.3861803160       800.2499622688     34214.9685291704         6.4015640914         7.1672944025
 18   1        20.6024999138       816.1333692593     35151.9597417260         6.4279246579         7.1779572516
 18   2        20.6027952368       816.1677307465     35154.4419101813         6.4280151093         7.1779938392
 18   3        20.6024999138       816.1333692593     35151.9597417263         6.4279246579         7.1779572516
 18   4        20.6027952368       816.1677307465     35154.4419101812         6.4280151093         7.1779938392
 18   5        20.6144492768       815.4326541365     35083.1091423007         6.4238511391         7.1763095133
 18   6        20.6173891440       815.5413125082     35087.0763916613         6.4238034774         7.1762902341
 18   7        20.6144492768       815.4326541365     35083.1091423008         6.4238511391         7.1763095133
 18   8        20.6173891440       815.5413125082     35087.0763916614         6.4238034774         7.1762902341
 18   9        20.4162737481       806.4537008524     34727.3909647307         6.4230505229         7.1759856640
 18  10        20.4161371992       806.4487908975     34727.9814820372         6.4230890871         7.1760012632
 18  11        20.4162737481       806.4537008524     34727.3909647310         6.4230505229         7.1759856640
 18  12        20.4161371992       806.4487908975     34727.9814820373         6.4230890871         7.1760012632
 18  13        20.3248824266       798.1664018399     34162.4553598287         6.4039409756         7.1682558521
 18  14        20.3251238760       798.1691752147     34161.6039025644         6.4038815948         7.1682318326
 18  15        20.3248824266       798.1664018399     34162.4553598288         6.4039409756         7.1682558521
 18  16        20.3251238760       798.1691752147     34161.6039025646         6.4038815948         7.1682318326
 18  17        20.3838089726       800.1877432229     34213.9609396452         6.4017033544         7.1673507343
 18  18        20.3814381487       800.1255373903     34212.9536178784         6.4018426124         7.1674070642
 19   1        20.6049161500       816.1978826433     35153.0569367586         6.4277861482         7.1779012244
 19   2        20.6052116173       816.2322520588     35155.5394760586         6.4278766025         7.1779378132
 19   3        20.6049161500       816.1978826433     35153.0569367589         6.4277861482         7.1779012244
 19   4        20.6052116173       816.2322520588     35155.5394760585         6.4278766025         7.1779378132
 19   5        20.6168486929       815.4963464917     35084.1688188738         6.4237125163         7.1762534403
 19   6        20.6197893068       815.6050290601     35088.1368087592         6.4236648525         7.1762341603
 19   7        20.6168486929       815.4963464917     35084.1688188739         6.4237125163         7.1762534403
 19   8        20.6197893068       815.6050290601     35088.1368087593         6.4236648525         7.1762341603
 19   9        20.4186542322       806.5168115478     34728.4485614375         6.4229119905         7.1759296276
 19  10        20.4185177766       806.5119055412     34729.0393519996         6.4229505572         7.1759452279
 19  11        20.4186542322       806.5168115478     34728.4485614378         6.4229119905         7.1759296276
 19  12        20.4185177766       806.5119055412     34729.0393519997         6.4229505572         7.1759452279
 19  13        20.3272588688       798.2289443951     34163.4848166166         6.4038018181         7.1681995629
 19  14        20.3275004400       798.2317214038     34162.6334008334         6.4037424343         7.1681755422
 19  15        20.3272588688       798.2289443951     34163.4848166168         6.4038018181         7.1681995629
 19  16        20.3275004400       798.2317214038     34162.6334008336         6.4037424343         7.1681755422
 19  17        20.3861803160       800.2499622688     34214.9685291706         6.4015640914         7.1672944025
 19  18        20.3838089726       800.1877432229     34213.9609396453         6.4017033544         7.1673507343
 19  19        20.3861803160       800.2499622688     34214.9685291707         6.4015640914         7.1672944025
 20   1        20.6024999138       816.1333692593     35151.9597417257         6.4279246579         7.1779572516
 20   2        20.6027952368       816.1677307465     35154.4419101810         6.4280151093         7.1779938392
 20   3        20.6024999138       816.1333692593     35151.9597417260         6.4279246579         7.1779572516
 20   4        20.6027952368       816.1677307465     35154.4419101809         6.4280151093         7.1779938392
 20   5        20.6144492768       815.4326541365     35083.1091423004         6.4238511391         7.1763095133
 20   6        20.6173891440       815.5413125082     35087.0763916610         6.4238034774         7.1762902341
 20   7        20.6144492768       815.4326541365     35083.1091423005         6.4238511391         7.1763095133
 20   8        20.6173891440       815.5413125082     35087.0763916611         6.4238034774         7.1762902341
 20   9        20.4162737481       806.4537008524     34727.3909647304         6.4230505229         7.1759856640
 20  10        20.4161371992       806.4487908975     34727.9814820369         6.4230890871         7.1760012632
 20  11        20.4162737481       806.4537008524     34727.3909647307         6.4230505229         7.1759856640
 20  12        20.4161371992       806.4487908975     34727.9814820370         6.4230890871         7.1760012632
 20  13        20.3248824266       798.1664018399     34162.4553598284         6.4039409756         7.1682558521
 20  14        20.3251238760       798.1691752147     34161.6039025641         6.4038815948         7.1682318326
 20  15        20.3248824266       798.1664018399     34162.4553598285         6.4039409756         7.1682558521
 20  16        20.3251238760       798.1691752147     34161.6039025643         6.4038815948         7.1682318326
 20  17        20.3838089726       800.1877432228     34213.9609396449         6.4017033544         7.1673507343
 20  18        20.3814381487       800.1255373903     34212.9536178781         6.4018426124         7.1674070642
 20  19        20.3838089726       800.1877432228     34213.9609396450         6.4017033544         7.1673507343
 20  20        20.3814381487       800.1255373903     34212.9536178778         6.4018426124         7.1674070642
 21   1        20.3020802168       806.0970132626     35056.5993385742         6.4473654787         7.1858210636
 21   2        20.3023292743       806.1292343842     35058.9826643017         6.4474552910         7.1858573927
 21   3        20.3020802168       806.0970132626     35056.5993385745         6.4473654787         7.1858210636
 21   4        20.3023292743       806.1292343842     35058.9826643016         6.4474552910         7.1858573927
 21   5        20.3208269920       805.6840105083     35000.8044204373         6.4433203771         7.1841848200
 21   6        20.3235701503       805.7852484480     35004.5067177182         6.4432730641         7.1841656819
 21   7        20.3208269920       805.6840105083     35000.8044204374         6.4433203771         7.1841848200
 21   8        20.3235701503       805.7852484480     35004.5067177183         6.4432730641         7.1841656819
 21   9        20.1238918265       796.7523614710     34643.2236402239         6.4425229703         7.1838622690
 21  10        20.1237154386       796.7458547300     34643.7310683783         6.4425612377         7.1838777481
 21  11        20.1238918265       796.7523614710     34643.2236402242         6.4425229703         7.1838622690
 21  12        20.1237154386       796.7458547300     34643.7310683784         6.4425612377         7.1838777481
 21  13        20.0312785920       788.4758579237     34079.4331956853         6.4235496677         7.1761875681
[...]
  Fvdw (85) =   2.231528402359E-05  -1.026194593005E-05   2.583374153857E-05  Hartree/bohr
            =   4.463056804719E-05  -2.052389186010E-05   5.166748307714E-05  Ry/bohr
  Fvdw (86) =  -2.249140699325E-05  -1.043104939495E-05  -2.534399475833E-05  Hartree/bohr
            =  -4.498281398651E-05  -2.086209878990E-05  -5.068798951665E-05  Ry/bohr
  Fvdw (87) =  -2.231528402359E-05   1.026194593005E-05  -2.583374153857E-05  Hartree/bohr
            =  -4.463056804719E-05   2.052389186010E-05  -5.166748307714E-05  Ry/bohr
  Fvdw (88) =   2.249140699326E-05   1.043104939495E-05   2.534399475833E-05  Hartree/bohr
            =   4.498281398651E-05   2.086209878990E-05   5.068798951665E-05  Ry/bohr
  Fvdw (89) =  -3.342509879676E-05   6.972711298557E-05  -7.864619066422E-05  Hartree/bohr
            =  -6.685019759352E-05   1.394542259711E-04  -1.572923813284E-04  Ry/bohr
  Fvdw (90) =   3.339174013569E-05   6.898946718054E-05   7.900522653993E-05  Hartree/bohr
            =   6.678348027138E-05   1.379789343611E-04   1.580104530799E-04  Ry/bohr
  Fvdw (91) =   3.342509879676E-05  -6.972711298557E-05   7.864619066422E-05  Hartree/bohr
            =   6.685019759352E-05  -1.394542259711E-04   1.572923813284E-04  Ry/bohr
  Fvdw (92) =  -3.339174013569E-05  -6.898946718054E-05  -7.900522653992E-05  Hartree/bohr
            =  -6.678348027139E-05  -1.379789343611E-04  -1.580104530798E-04  Ry/bohr
  sigma_vdw (Hy/bohr**3) =  -4.796751256597E-05   6.545735989438E-10   1.181766658335E-06  
                             6.545735989438E-10  -4.742365919171E-05   2.690608146230E-09  
                             1.181766658335E-06   2.690608146230E-09  -5.060481599525E-05  
  sigma_vdw (Ry/bohr**3) =  -9.593502513194E-05   1.309147197888E-09   2.363533316671E-06  
                             1.309147197888E-09  -9.484731838343E-05   5.381216292460E-09  
                             2.363533316671E-06   5.381216292460E-09  -1.012096319905E-04  
  sigma_vdw (GPa) =  -1.411252705431E+00   1.925821692635E-05   3.476876962236E-02  
                      1.925821692635E-05  -1.395251989431E+00   7.916041133880E-05  
                      3.476876962236E-02   7.916041133880E-05  -1.488844838116E+00  
 
 TIME (final):      844.7

!    total energy              =   -3886.44710482 Ry
     Harris-Foulkes estimate   =   -3886.44710484 Ry
     estimated scf accuracy    <       0.00000002 Ry

     total all-electron energy =   -108018.781729 Ry

     The total energy is the sum of the following terms:

     one-electron contribution =    -502.70785212 Ry
     hartree contribution      =     370.90522187 Ry
     xc contribution           =    -330.92588104 Ry
     ewald contribution        =    -406.39963299 Ry
     Dispersion XDM Correction =      -0.67740523 Ry
     Uncorrected (XDM) energy  =   -3885.76969960 Ry
     one-center paw contrib.   =   -3016.64155531 Ry

     convergence has been achieved in  74 iterations

     Forces acting on atoms (Ry/au):

     atom    1 type  1   force =    -0.00083103    0.00047900    0.00013900
     atom    2 type  1   force =    -0.00067818    0.00064240    0.00024401
     atom    3 type  1   force =     0.00083103   -0.00047900   -0.00013900
     atom    4 type  1   force =     0.00067818   -0.00064240   -0.00024401
     atom    5 type  1   force =     0.00071661    0.00056498   -0.00020332
     atom    6 type  1   force =     0.00032698    0.00016432   -0.00032404
     atom    7 type  1   force =    -0.00071661   -0.00056498    0.00020332
     atom    8 type  1   force =    -0.00032698   -0.00016432    0.00032404
     atom    9 type  1   force =     0.00050052   -0.00001759    0.00031893
     atom   10 type  1   force =     0.00048402    0.00014011   -0.00016937
     atom   11 type  1   force =    -0.00050052    0.00001759   -0.00031893
     atom   12 type  1   force =    -0.00048402   -0.00014011    0.00016937
     atom   13 type  1   force =     0.00060447   -0.00040482    0.00054887
     atom   14 type  1   force =    -0.00042124   -0.00023603   -0.00043569
     atom   15 type  1   force =    -0.00060447    0.00040482   -0.00054887
     atom   16 type  1   force =     0.00042124    0.00023603    0.00043569
     atom   17 type  1   force =    -0.00033637    0.00013342   -0.00017201
     atom   18 type  1   force =     0.00018917   -0.00012775    0.00005029
     atom   19 type  1   force =     0.00033637   -0.00013342    0.00017201
     atom   20 type  1   force =    -0.00018917    0.00012775   -0.00005029
     atom   21 type  1   force =    -0.00020175    0.00017175   -0.00000844
     atom   22 type  1   force =    -0.00052567   -0.00001594   -0.00013582
     atom   23 type  1   force =     0.00020175   -0.00017175    0.00000844
     atom   24 type  1   force =     0.00052567    0.00001594    0.00013582
     atom   25 type  1   force =    -0.00008237   -0.00032853    0.00000104
     atom   26 type  1   force =     0.00009457   -0.00031752   -0.00007988
     atom   27 type  1   force =     0.00008237    0.00032853   -0.00000104
     atom   28 type  1   force =    -0.00009457    0.00031752    0.00007988
     atom   29 type  1   force =     0.00020110   -0.00049816    0.00018698
     atom   30 type  1   force =    -0.00071727   -0.00022931    0.00008649
     atom   31 type  1   force =    -0.00020110    0.00049816   -0.00018698
     atom   32 type  1   force =     0.00071727    0.00022931   -0.00008649
     atom   33 type  1   force =     0.00017503   -0.00021941   -0.00001887
     atom   34 type  1   force =     0.00007708    0.00019968   -0.00003110
     atom   35 type  1   force =    -0.00017503    0.00021941    0.00001887
     atom   36 type  1   force =    -0.00007708   -0.00019968    0.00003110
     atom   37 type  1   force =     0.00013306   -0.00001390   -0.00041464
     atom   38 type  1   force =     0.00004923   -0.00061527   -0.00008412
     atom   39 type  1   force =    -0.00013306    0.00001390    0.00041464
     atom   40 type  1   force =    -0.00004923    0.00061527    0.00008412
     atom   41 type  1   force =     0.00023489   -0.00008350    0.00025001
     atom   42 type  1   force =    -0.00020801   -0.00002073   -0.00039457
     atom   43 type  1   force =    -0.00023489    0.00008350   -0.00025001
     atom   44 type  1   force =     0.00020801    0.00002073    0.00039457
     atom   45 type  1   force =     0.00042923    0.00021550   -0.00045402
     atom   46 type  1   force =    -0.00010102    0.00017149    0.00054364
     atom   47 type  1   force =    -0.00042923   -0.00021550    0.00045402
     atom   48 type  1   force =     0.00010102   -0.00017149   -0.00054364
     atom   49 type  4   force =     0.00010946    0.00045348    0.00010923
     atom   50 type  4   force =     0.00014646    0.00023894   -0.00010956
     atom   51 type  4   force =    -0.00010946   -0.00045348   -0.00010923
     atom   52 type  4   force =    -0.00014646   -0.00023894    0.00010956
     atom   53 type  4   force =    -0.00002467    0.00045709    0.00018551
     atom   54 type  4   force =    -0.00012991    0.00061988    0.00008908
     atom   55 type  4   force =     0.00002467   -0.00045709   -0.00018551
     atom   56 type  4   force =     0.00012991   -0.00061988   -0.00008908
     atom   57 type  2   force =     0.00056298    0.00045382    0.00049007
     atom   58 type  2   force =    -0.00008090    0.00044154   -0.00028637
     atom   59 type  2   force =    -0.00056298   -0.00045382   -0.00049007
     atom   60 type  2   force =     0.00008090   -0.00044154    0.00028637
     atom   61 type  2   force =    -0.00024818   -0.00047137   -0.00048785
     atom   62 type  2   force =    -0.00011997   -0.00030705    0.00027201
     atom   63 type  2   force =     0.00024818    0.00047137    0.00048785
     atom   64 type  2   force =     0.00011997    0.00030705   -0.00027201
     atom   65 type  2   force =     0.00034534   -0.00032957    0.00009672
     atom   66 type  2   force =    -0.00049416   -0.00031938   -0.00026670
     atom   67 type  2   force =    -0.00034534    0.00032957   -0.00009672
     atom   68 type  2   force =     0.00049416    0.00031938    0.00026670
     atom   69 type  2   force =     0.00018218   -0.00019001   -0.00067606
     atom   70 type  2   force =    -0.00017406   -0.00006480    0.00084668
     atom   71 type  2   force =    -0.00018218    0.00019001    0.00067606
     atom   72 type  2   force =     0.00017406    0.00006480   -0.00084668
     atom   73 type  2   force =     0.00028905   -0.00003113    0.00022318
     atom   74 type  2   force =    -0.00040443    0.00024902   -0.00001687
     atom   75 type  2   force =    -0.00028905    0.00003113   -0.00022318
     atom   76 type  2   force =     0.00040443   -0.00024902    0.00001687
     atom   77 type  2   force =     0.00045158    0.00019292    0.00020417
     atom   78 type  2   force =    -0.00035720    0.00005585   -0.00014544
     atom   79 type  2   force =    -0.00045158   -0.00019292   -0.00020417
     atom   80 type  2   force =     0.00035720   -0.00005585    0.00014544
     atom   81 type  2   force =    -0.00002203   -0.00016607    0.00018906
     atom   82 type  2   force =     0.00002426   -0.00013495   -0.00066084
     atom   83 type  2   force =     0.00002203    0.00016607   -0.00018906
     atom   84 type  2   force =    -0.00002426    0.00013495    0.00066084
     atom   85 type  2   force =    -0.00051843   -0.00051157    0.00076303
     atom   86 type  2   force =     0.00043840   -0.00054364   -0.00032642
     atom   87 type  2   force =     0.00051843    0.00051157   -0.00076303
     atom   88 type  2   force =    -0.00043840    0.00054364    0.00032642
     atom   89 type  3   force =     0.00072376    0.00004867    0.00004914
     atom   90 type  3   force =    -0.00061035    0.00013828    0.00012856
     atom   91 type  3   force =    -0.00072376   -0.00004867   -0.00004914
     atom   92 type  3   force =     0.00061035   -0.00013828   -0.00012856

     Total force =     0.005830     Total SCF correction =     0.000381

     Total XDM Dispersion Force =     0.004194

     XDM Dispersion forces acting on atoms:
     atom    1 type  1   force =    -0.00018558    0.00018535    0.00002324
     atom    2 type  1   force =     0.00018559    0.00018432   -0.00002538
     atom    3 type  1   force =     0.00018558   -0.00018535   -0.00002324
     atom    4 type  1   force =    -0.00018559   -0.00018432    0.00002538
     atom    5 type  1   force =     0.00028009    0.00029176   -0.00034998
     atom    6 type  1   force =    -0.00028026    0.00029356    0.00035119
     atom    7 type  1   force =    -0.00028009   -0.00029176    0.00034998
     atom    8 type  1   force =     0.00028026   -0.00029356   -0.00035119
     atom    9 type  1   force =     0.00022966   -0.00019495    0.00046831
     atom   10 type  1   force =    -0.00023351   -0.00019418   -0.00046876
     atom   11 type  1   force =    -0.00022966    0.00019495   -0.00046831
     atom   12 type  1   force =     0.00023351    0.00019418    0.00046876
     atom   13 type  1   force =     0.00009381    0.00032227   -0.00008893
     atom   14 type  1   force =    -0.00009526    0.00031989    0.00008848
     atom   15 type  1   force =    -0.00009381   -0.00032227    0.00008893
     atom   16 type  1   force =     0.00009526   -0.00031989   -0.00008848
     atom   17 type  1   force =    -0.00007174   -0.00015259   -0.00032218
     atom   18 type  1   force =     0.00006989   -0.00015607    0.00032095
     atom   19 type  1   force =     0.00007174    0.00015259    0.00032218
     atom   20 type  1   force =    -0.00006989    0.00015607   -0.00032095
     atom   21 type  1   force =     0.00027227    0.00012087   -0.00010724
     atom   22 type  1   force =    -0.00027508    0.00012113    0.00010760
     atom   23 type  1   force =    -0.00027227   -0.00012087    0.00010724
     atom   24 type  1   force =     0.00027508   -0.00012113   -0.00010760
     atom   25 type  1   force =     0.00021281   -0.00034672    0.00045072
     atom   26 type  1   force =    -0.00021557   -0.00034654   -0.00045080
     atom   27 type  1   force =    -0.00021281    0.00034672   -0.00045072
     atom   28 type  1   force =     0.00021557    0.00034654    0.00045080
     atom   29 type  1   force =     0.00039631   -0.00000037    0.00030883
     atom   30 type  1   force =    -0.00039728    0.00000125   -0.00030867
     atom   31 type  1   force =    -0.00039631    0.00000037   -0.00030883
     atom   32 type  1   force =     0.00039728   -0.00000125    0.00030867
     atom   33 type  1   force =     0.00001548   -0.00029114   -0.00013708
     atom   34 type  1   force =    -0.00001826   -0.00029073    0.00013682
     atom   35 type  1   force =    -0.00001548    0.00029114    0.00013708
     atom   36 type  1   force =     0.00001826    0.00029073   -0.00013682
     atom   37 type  1   force =     0.00013573    0.00007099   -0.00003437
     atom   38 type  1   force =    -0.00013726    0.00006981    0.00003335
     atom   39 type  1   force =    -0.00013573   -0.00007099    0.00003437
     atom   40 type  1   force =     0.00013726   -0.00006981   -0.00003335
     atom   41 type  1   force =     0.00029078   -0.00040846    0.00029336
     atom   42 type  1   force =    -0.00029379   -0.00040931   -0.00029292
     atom   43 type  1   force =    -0.00029078    0.00040846   -0.00029336
     atom   44 type  1   force =     0.00029379    0.00040931    0.00029292
     atom   45 type  1   force =     0.00011410   -0.00011699   -0.00004803
     atom   46 type  1   force =    -0.00011658   -0.00011695    0.00004892
     atom   47 type  1   force =    -0.00011410    0.00011699    0.00004803
     atom   48 type  1   force =     0.00011658    0.00011695   -0.00004892
     atom   49 type  4   force =     0.00012677    0.00013120   -0.00131929
     atom   50 type  4   force =    -0.00012620    0.00012600    0.00131944
     atom   51 type  4   force =    -0.00012677   -0.00013120    0.00131929
     atom   52 type  4   force =     0.00012620   -0.00012600   -0.00131944
     atom   53 type  4   force =     0.00030728    0.00000235    0.00023349
     atom   54 type  4   force =    -0.00031172    0.00000212   -0.00023371
     atom   55 type  4   force =    -0.00030728   -0.00000235   -0.00023349
     atom   56 type  4   force =     0.00031172   -0.00000212    0.00023371
     atom   57 type  2   force =    -0.00020634    0.00002393    0.00004869
     atom   58 type  2   force =     0.00020641    0.00002370   -0.00004870
     atom   59 type  2   force =     0.00020634   -0.00002393   -0.00004869
     atom   60 type  2   force =    -0.00020641   -0.00002370    0.00004870
     atom   61 type  2   force =     0.00007385    0.00004078   -0.00019501
     atom   62 type  2   force =    -0.00007442    0.00004212    0.00019555
     atom   63 type  2   force =    -0.00007385   -0.00004078    0.00019501
     atom   64 type  2   force =     0.00007442   -0.00004212   -0.00019555
     atom   65 type  2   force =     0.00004860    0.00022026   -0.00000882
     atom   66 type  2   force =    -0.00005045    0.00021961    0.00000727
     atom   67 type  2   force =    -0.00004860   -0.00022026    0.00000882
     atom   68 type  2   force =     0.00005045   -0.00021961   -0.00000727
     atom   69 type  2   force =     0.00007581    0.00005720    0.00011339
     atom   70 type  2   force =    -0.00007646    0.00005805   -0.00011351
     atom   71 type  2   force =    -0.00007581   -0.00005720   -0.00011339
     atom   72 type  2   force =     0.00007646   -0.00005805    0.00011351
     atom   73 type  2   force =     0.00009379    0.00001855   -0.00006060
     atom   74 type  2   force =    -0.00009490    0.00001884    0.00005984
     atom   75 type  2   force =    -0.00009379   -0.00001855    0.00006060
     atom   76 type  2   force =     0.00009490   -0.00001884   -0.00005984
     atom   77 type  2   force =     0.00003229   -0.00016663    0.00019844
     atom   78 type  2   force =    -0.00003295   -0.00016674   -0.00019853
     atom   79 type  2   force =    -0.00003229    0.00016663   -0.00019844
     atom   80 type  2   force =     0.00003295    0.00016674    0.00019853
     atom   81 type  2   force =     0.00006190    0.00013985    0.00011490
     atom   82 type  2   force =    -0.00006190    0.00014030   -0.00011573
     atom   83 type  2   force =    -0.00006190   -0.00013985   -0.00011490
     atom   84 type  2   force =     0.00006190   -0.00014030    0.00011573
     atom   85 type  2   force =     0.00004463   -0.00002052    0.00005167
     atom   86 type  2   force =    -0.00004498   -0.00002086   -0.00005069
     atom   87 type  2   force =    -0.00004463    0.00002052   -0.00005167
     atom   88 type  2   force =     0.00004498    0.00002086    0.00005069
     atom   89 type  3   force =    -0.00006685    0.00013945   -0.00015729
     atom   90 type  3   force =     0.00006678    0.00013798    0.00015801
     atom   91 type  3   force =     0.00006685   -0.00013945    0.00015729
     atom   92 type  3   force =    -0.00006678   -0.00013798   -0.00015801


     entering subroutine stress ...

          total   stress  (Ry/bohr**3)                   (kbar)     P=   -0.13
   0.00000020   0.00000010   0.00000236          0.03      0.01      0.35
   0.00000010  -0.00000229   0.00000004          0.01     -0.34      0.01
   0.00000236   0.00000004  -0.00000055          0.35      0.01     -0.08


     Writing output data file fepxas.save
 
     init_run     :     51.56s CPU     53.92s WALL (       2 calls)
     electrons    :   4869.64s CPU   4986.52s WALL (       3 calls)
     update_pot   :     20.75s CPU     20.96s WALL (       1 calls)
     forces       :     79.59s CPU     80.89s WALL (       3 calls)
     stress       :    189.21s CPU    190.70s WALL (       3 calls)

     Called by init_run:
     wfcinit      :     11.96s CPU     12.20s WALL (       2 calls)
     potinit      :     14.61s CPU     15.71s WALL (       2 calls)

     Called by electrons:
     c_bands      :   1729.75s CPU   1766.94s WALL (     166 calls)
     sum_band     :   1263.99s CPU   1296.26s WALL (     166 calls)
     v_of_rho     :    118.28s CPU    118.90s WALL (     168 calls)
     newd         :    751.00s CPU    758.12s WALL (     168 calls)
     mix_rho      :     81.22s CPU     89.14s WALL (     166 calls)

     Called by c_bands:
     init_us_2    :     10.17s CPU     10.21s WALL (     334 calls)
     cegterg      :   1708.31s CPU   1745.49s WALL (     166 calls)

     Called by *egterg:
     h_psi        :   1117.51s CPU   1135.85s WALL (     858 calls)
     s_psi        :    157.07s CPU    157.10s WALL (     858 calls)
     g_psi        :      5.89s CPU      5.89s WALL (     690 calls)
     cdiaghg      :    104.93s CPU    105.06s WALL (     854 calls)

     Called by h_psi:
     add_vuspsi   :    157.65s CPU    157.68s WALL (     858 calls)

     General routines
     calbec       :    214.29s CPU    218.12s WALL (    1030 calls)
     fft          :     92.46s CPU    110.09s WALL (    4944 calls)
     ffts         :      4.94s CPU      5.02s WALL (     668 calls)
     fftw         :   1198.35s CPU   1232.73s WALL (  229756 calls)
     interpolate  :     19.81s CPU     20.02s WALL (     668 calls)
     davcio       :      0.00s CPU      7.00s WALL (     165 calls)
 
     Parallel routines
     fft_scatter  :    266.16s CPU    314.03s WALL (  235368 calls)
 
     PAW routines
     PAW_pot      :     73.67s CPU     88.61s WALL (     168 calls)
     PAW_ddot     :     52.94s CPU     60.37s WALL (    6574 calls)
     PAW_symme    :      0.02s CPU      0.07s WALL (     333 calls)
 
     PWSCF        :     1h26m CPU        1h29m WALL

 
   This run was terminated on:  19:31:51   4Nov2012            

=------------------------------------------------------------------------------=
   JOB DONE.
=------------------------------------------------------------------------------=
