
     Program PWSCF v.4.3.2      starts on 27Oct2012 at  0:38:32 

     This program is part of the open-source Quantum ESPRESSO suite
     for quantum simulation of materials; please cite
         "P. Giannozzi et al., J. Phys.:Condens. Matter 21 395502 (2009);
          URL http://www.quantum-espresso.org", 
     in publications or presentations arising from this work. More details at
     http://www.quantum-espresso.org/wiki/index.php/Citing_Quantum-ESPRESSO

     Parallel version (MPI), running on    12 processors
     R & G space division:  proc/pool =   12

     Current dimensions of program PWSCF are:
     Max number of different atomic species (ntypx) = 10
     Max number of k-points (npk) =  40000
     Max angular momentum in pseudopotentials (lmaxx) =  3
     Waiting for input...
     Reading input from stdin
               file c.UPF: wavefunction(s)  2P renormalized
               file h.UPF: wavefunction(s)  1S renormalized
               file s.UPF: wavefunction(s)  3P renormalized

     Subspace diagonalization in iterative solution of the eigenvalue problem:
     a serial algorithm will be used

 
     Parallelization info
     --------------------
     sticks:   dense  smooth     PW     G-vecs:    dense   smooth      PW
     Min        3215    2146    563               131994    71842    9687
     Max        3216    2147    564               131995    71864    9688
     Sum       38589   25753   6759              1583931   862221  116245
 

     Title: 
     fepxas                                                                     


     bravais-lattice index     =            0
     lattice parameter (alat)  =       1.0000  a.u.
     unit-cell volume          =   13732.3436 (a.u.)^3
     number of atoms/cell      =           92
     number of atomic types    =            4
     number of electrons       =       288.00
     number of Kohn-Sham states=          144
     kinetic-energy cutoff     =      60.0000  Ry
     charge density cutoff     =     360.0000  Ry
     convergence threshold     =      1.0E-07
     mixing beta               =       0.7000
     number of iterations used =            8  plain     mixing
     Exchange-correlation      =  NOX  PW   PW86 PBC ( 0 417 4 0)
     EXX-fraction              =        0.00
     nstep                     =           50


     celldm(1)=   1.000000  celldm(2)=   0.000000  celldm(3)=   0.000000
     celldm(4)=   0.000000  celldm(5)=   0.000000  celldm(6)=   0.000000

     crystal axes: (cart. coord. in units of alat)
               a(1) = (  42.398794  -0.001141   1.540236 )  
               a(2) = (   0.000086  31.765558   0.000257 )  
               a(3) = (   0.145326  -0.000278  10.201393 )  

     reciprocal axes: (cart. coord. in units 2 pi/alat)
               b(1) = (  0.023598  0.000000 -0.000336 )  
               b(2) = (  0.000001  0.031481  0.000001 )  
               b(3) = ( -0.003563 -0.000001  0.098077 )  


     PseudoPot. # 1 for  C read from file:
     ./c.UPF
     MD5 check sum: 59d3a4af416b94ce846c69cefa103580
     Pseudo is Projector augmented-wave + core cor, Zval =  4.0
     Generated using "atomic" code by A. Dal Corso  (Quantum ESPRESSO distribution)
     Shape of augmentation charge: BESSEL
     Using radial grid of 1073 points,  4 beta functions with: 
                l(1) =   0
                l(2) =   0
                l(3) =   1
                l(4) =   1
     Q(r) pseudized with 0 coefficients 


     PseudoPot. # 2 for  H read from file:
     ./h.UPF
     MD5 check sum: 465503140a8a8e79e3a70d3488897feb
     Pseudo is Projector augmented-wave, Zval =  1.0
     Generated using "atomic" code by A. Dal Corso  (Quantum ESPRESSO distribution)
     Shape of augmentation charge: PSQ
     Using radial grid of  929 points,  2 beta functions with: 
                l(1) =   0
                l(2) =   0
     Q(r) pseudized with 0 coefficients 


     PseudoPot. # 3 for  S read from file:
     ./s.UPF
     MD5 check sum: f30e8e98a43cb1acb672e04b450f70db
     Pseudo is Projector augmented-wave + core cor, Zval =  6.0
     Generated using "atomic" code by A. Dal Corso  (Quantum ESPRESSO distribution)
     Shape of augmentation charge: PSQ
     Using radial grid of 1151 points,  4 beta functions with: 
                l(1) =   0
                l(2) =   0
                l(3) =   1
                l(4) =   1
     Q(r) pseudized with 0 coefficients 


     PseudoPot. # 4 for As read from file:
     ./as.UPF
     MD5 check sum: c4211a47c95e243bf5c6b176bad74a68
     Pseudo is Projector augmented-wave + core cor, Zval =  5.0
     Generated using "atomic" code by A. Dal Corso  (Quantum ESPRESSO distribution)
     Shape of augmentation charge: PSQ
     Using radial grid of 1209 points,  4 beta functions with: 
                l(1) =   0
                l(2) =   0
                l(3) =   1
                l(4) =   1
     Q(r) pseudized with 0 coefficients 


     atomic species   valence    mass     pseudopotential
        c              4.00    12.01070      C( 1.00)
        h              1.00     1.00794      H( 1.00)
        s              6.00    32.06500      S( 1.00)
        as             5.00    74.92160     As( 1.00)

      2 Sym.Ops. (with inversion)


   Cartesian axes

     site n.     atom                  positions (alat units)
         1           c   tau(   1) = (  25.1462669  26.1345229   9.6885638  )
         2           c   tau(   2) = (  38.6686832  10.2524155   7.9231891  )
         3           c   tau(   3) = (  17.3979388   5.6296163   2.0533227  )
         4           c   tau(   4) = (   3.8755225  21.5117237   3.8186974  )
         5           c   tau(   5) = (  26.5159067  27.6069136   7.9757125  )
         6           c   tau(   6) = (  37.2982056  11.7236092   9.6367321  )
         7           c   tau(   7) = (  16.0282991   4.1572256   3.7661740  )
         8           c   tau(   8) = (   5.2460001  20.0405299   2.1051544  )
         9           c   tau(   9) = (  26.3709224  25.0688169  11.7639434  )
        10           c   tau(  10) = (  37.4444935   9.1865180   5.8479659  )
        11           c   tau(  11) = (  16.1732834   6.6953222  -0.0220569  )
        12           c   tau(  12) = (   5.0997123  22.5776212   5.8939206  )
        13           c   tau(  13) = (  33.8874084   4.6339373   9.8714222  )
        14           c   tau(  14) = (  29.9282086  20.5147446   7.7417612  )
        15           c   tau(  15) = (   8.6567974  27.1302019   1.8704643  )
        16           c   tau(  16) = (  12.6159971  11.2493945   4.0001253  )
        17           c   tau(  17) = (  32.6686451   3.0848915   8.1129852  )
        18           c   tau(  18) = (  31.1461467  18.9645984   9.5007394  )
        19           c   tau(  19) = (   9.8755607  28.6792476   3.6289013  )
        20           c   tau(  20) = (  11.3980590  12.7995407   2.2411471  )
        21           c   tau(  21) = (  29.1017588  28.0169602   8.3438067  )
        22           c   tau(  22) = (  34.7120041  12.1322240   9.2686939  )
        23           c   tau(  23) = (  13.4424470   3.7471789   3.3980798  )
        24           c   tau(  24) = (   7.8322017  19.6319151   2.4731926  )
        25           c   tau(  25) = (  35.2627810   3.5436542  11.8356010  )
        26           c   tau(  26) = (  28.5537276  19.4248650   5.7769518  )
        27           c   tau(  27) = (   7.2814248  28.2204849  -0.0937145  )
        28           c   tau(  28) = (  13.9904782  12.3392742   5.9649347  )
        29           c   tau(  29) = (  28.9572286  25.4611602  12.1274568  )
        30           c   tau(  30) = (  34.8577565   9.5773777   5.4846012  )
        31           c   tau(  31) = (  13.5869772   6.3029789  -0.3855703  )
        32           c   tau(  32) = (   7.6864493  22.1867614   6.2572853  )
        33           c   tau(  33) = (  32.7566240   0.4541872   8.3714628  )
        34           c   tau(  34) = (  31.0573181  16.3341568   9.2414861  )
        35           c   tau(  35) = (   9.7875818  31.3099519   3.3704237  )
        36           c   tau(  36) = (  11.4868877  15.4299823   2.5004004  )
        37           c   tau(  37) = (  30.3294931  26.9470989  10.4292896  )
        38           c   tau(  38) = (  33.4849022  11.0625057   7.1831711  )
        39           c   tau(  39) = (  12.2147126   4.8170403   1.3125969  )
        40           c   tau(  40) = (   9.0593035  20.7016335   4.5587154  )
        41           c   tau(  41) = (  35.3729283   0.9172615  12.0904231  )
        42           c   tau(  42) = (  28.4425437  16.7989018   5.5217037  )
        43           c   tau(  43) = (   7.1712775  30.8468776  -0.3485366  )
        44           c   tau(  44) = (  14.1016621  14.9652373   6.2201828  )
        45           c   tau(  45) = (  34.0698948  31.1336662  10.3948114  )
        46           c   tau(  46) = (  29.7447143  15.2488167   7.2179948  )
        47           c   tau(  47) = (   8.4743109   0.6304729   1.3470751  )
        48           c   tau(  48) = (  12.7994915  16.5153225   4.5238917  )
        49           as  tau(  49) = (  30.9082064  30.1570169   5.8258811  )
        50           as  tau(  50) = (  32.7601710  14.2713640   1.5858758  )
        51           as  tau(  51) = (  11.6359993   1.6071222   5.9160054  )
        52           as  tau(  52) = (   9.7840347  17.4927752  10.1560107  )
        53           as  tau(  53) = (  34.0942921  27.3580308  10.8123439  )
        54           as  tau(  54) = (  29.7199529  11.4731510   6.8003391  )
        55           as  tau(  55) = (   8.4499136   4.4061083   0.9295426  )
        56           as  tau(  56) = (  12.8242528  20.2909881   4.9415474  )
        57           h   tau(  57) = (  23.1392624  25.8113473   9.3937032  )
        58           h   tau(  58) = (  40.6759847   9.9307688   8.2173594  )
        59           h   tau(  59) = (  19.4049433   5.9527918   2.3481833  )
        60           h   tau(  60) = (   1.8682210  21.8333703   3.5245271  )
        61           h   tau(  61) = (  25.5736970  28.4135280   6.3336385  )
        62           h   tau(  62) = (  38.2403061  12.5303642  11.2784890  )
        63           h   tau(  63) = (  16.9705088   3.3506111   5.4082480  )
        64           h   tau(  64) = (   4.3038997  19.2337749   0.4633975  )
        65           h   tau(  65) = (  33.7736979   6.6749767   9.6874829  )
        66           h   tau(  66) = (  30.0428841  22.5554235   7.9258610  )
        67           h   tau(  67) = (   8.7705079  25.0891624   2.0544036  )
        68           h   tau(  68) = (  12.5013217   9.2087157   3.8160255  )
        69           h   tau(  69) = (  25.1723908  23.9194372   2.9018582  )
        70           h   tau(  70) = (  38.4980349   8.0377337   4.5082845  )
        71           h   tau(  71) = (  17.3718149   7.8447020   8.8400283  )
        72           h   tau(  72) = (   4.0461709  23.7264054   7.2336020  )
        73           h   tau(  73) = (  31.6617723   3.9339760   6.5309324  )
        74           h   tau(  74) = (  32.1526613  19.8131055  11.0829266  )
        75           h   tau(  75) = (  10.8824334  27.8301631   5.2109541  )
        76           h   tau(  76) = (  10.3915445  11.9510337   0.6589599  )
        77           h   tau(  77) = (  36.0939703   4.7287134   2.9981352  )
        78           h   tau(  78) = (  27.5783465  20.6104734   4.4124642  )
        79           h   tau(  79) = (   6.4502354  27.0354257   8.7437513  )
        80           h   tau(  80) = (  14.9658592  11.1536657   7.3294223  )
        81           h   tau(  81) = (  29.7576278  24.6147386   3.5420661  )
        82           h   tau(  82) = (  33.9123876   8.7306109   3.8686948  )
        83           h   tau(  83) = (  12.7865779   7.1494005   8.1998204  )
        84           h   tau(  84) = (   8.6318182  23.0335282   7.8731917  )
        85           h   tau(  85) = (  36.2803077  31.8544677   3.4483160  )
        86           h   tau(  86) = (  27.3904564  15.9709501   3.9619846  )
        87           h   tau(  87) = (   6.2638980  -0.0903286   8.2935705  )
        88           h   tau(  88) = (  15.1537494  15.7931890   7.7799018  )
        89           s   tau(  89) = (  34.1315143  27.2390399   5.0477106  )
        90           s   tau(  90) = (  29.5371635  11.3532702   2.3635714  )
        91           s   tau(  91) = (   8.4126915   4.5250992   6.6941759  )
        92           s   tau(  92) = (  13.0070422  20.4108689   9.3783151  )

     number of k points=     1
                       cart. coord. in units 2pi/alat
        k(    1) = (  -0.0126900  -0.0157405   0.0246868), wk =   2.0000000

     Dense  grid:  1583931 G-vectors     FFT dimensions: ( 270, 192,  64)

     Smooth grid:   862221 G-vectors     FFT dimensions: ( 216, 160,  54)

     Largest allocated arrays     est. size (Mb)     dimensions
        Kohn-Sham Wavefunctions        19.82 Mb     (   9019,  144)
        NL pseudopotentials            74.86 Mb     (   9019,  544)
        Each V/rho on FFT grid          4.75 Mb     ( 311040)
        Each G-vector array             1.01 Mb     ( 131995)
        G-vector shells                 1.01 Mb     ( 131995)
     Largest temporary arrays     est. size (Mb)     dimensions
        Auxiliary wavefunctions        79.27 Mb     (   9019,  576)
        Each subspace H/S matrix        5.06 Mb     ( 576, 576)
        Each <psi_i|beta_j> matrix      1.20 Mb     (    544,  144)
        Arrays for rho mixing          37.97 Mb     ( 311040,   8)

     Initial potential from superposition of free atoms

     starting charge  287.99579, renormalised to  288.00000
     Starting wfc are  272 atomic wfcs
     Checking if some PAW data can be deallocated... 

     total cpu time spent up to now is       61.8 secs

     per-process dynamical memory:   241.5 Mb

     Self-consistent Calculation

     iteration #  1     ecut=    60.00 Ry     beta=0.70
     Davidson diagonalization with overlap
     ethr =  1.00E-02,  avg # of iterations =  7.0

     total cpu time spent up to now is      119.6 secs

     total energy              =   -2607.66459347 Ry
     Harris-Foulkes estimate   =   -2615.92331076 Ry
     estimated scf accuracy    <      32.42596326 Ry

     iteration #  2     ecut=    60.00 Ry     beta=0.70
     Davidson diagonalization with overlap
     ethr =  1.00E-02,  avg # of iterations =  1.0

     total cpu time spent up to now is      172.0 secs

     total energy              =   -2607.59886925 Ry
     Harris-Foulkes estimate   =   -2608.10987628 Ry
     estimated scf accuracy    <       2.52189050 Ry

     iteration #  3     ecut=    60.00 Ry     beta=0.70
     Davidson diagonalization with overlap
     ethr =  8.76E-04,  avg # of iterations =  5.0

     negative rho (up, down):  0.107E-04 0.000E+00

     total cpu time spent up to now is      242.5 secs

     total energy              =   -2619.31210869 Ry
     Harris-Foulkes estimate   =   -2618.19473705 Ry
     estimated scf accuracy    <      30.43777606 Ry

     iteration #  4     ecut=    60.00 Ry     beta=0.70
     Davidson diagonalization with overlap
     ethr =  8.76E-04,  avg # of iterations =  1.0

     negative rho (up, down):  0.168E-04 0.000E+00

     total cpu time spent up to now is      287.7 secs

     total energy              =   -2617.96740201 Ry
     Harris-Foulkes estimate   =   -2619.32851575 Ry
     estimated scf accuracy    <      32.41660581 Ry

     iteration #  5     ecut=    60.00 Ry     beta=0.70
     Davidson diagonalization with overlap
     ethr =  8.76E-04,  avg # of iterations =  1.0

     negative rho (up, down):  0.302E-04 0.000E+00

     total cpu time spent up to now is      333.0 secs

     total energy              =   -2598.06566514 Ry
     Harris-Foulkes estimate   =   -2617.97715332 Ry
     estimated scf accuracy    <      30.35955465 Ry

     iteration #  6     ecut=    60.00 Ry     beta=0.70
     Davidson diagonalization with overlap
     ethr =  8.76E-04,  avg # of iterations = 18.0

     negative rho (up, down):  0.407E-04 0.000E+00

     total cpu time spent up to now is      420.1 secs

     total energy              =   -2627.36461795 Ry
     Harris-Foulkes estimate   =   -2627.93804488 Ry
     estimated scf accuracy    <     113.31110621 Ry

     iteration #  7     ecut=    60.00 Ry     beta=0.70
     Davidson diagonalization with overlap
     ethr =  8.76E-04,  avg # of iterations =  1.0

     negative rho (up, down):  0.133E-04 0.000E+00

     total cpu time spent up to now is      465.6 secs

     total energy              =   -2621.29807454 Ry
     Harris-Foulkes estimate   =   -2627.37290003 Ry
     estimated scf accuracy    <     112.38148265 Ry

     iteration #  8     ecut=    60.00 Ry     beta=0.70
     Davidson diagonalization with overlap
     ethr =  8.76E-04,  avg # of iterations =  1.0

     negative rho (up, down):  0.170E-05 0.000E+00

     total cpu time spent up to now is      511.1 secs

     total energy              =   -2617.93356632 Ry
     Harris-Foulkes estimate   =   -2621.31822418 Ry
     estimated scf accuracy    <     103.48848537 Ry

     iteration #  9     ecut=    60.00 Ry     beta=0.70
     Davidson diagonalization with overlap
     ethr =  8.76E-04,  avg # of iterations =  6.0

     negative rho (up, down):  0.184E-05 0.000E+00

     total cpu time spent up to now is      560.4 secs

     total energy              =   -2618.34801403 Ry
     Harris-Foulkes estimate   =   -2618.14886836 Ry
     estimated scf accuracy    <      90.93825471 Ry

     iteration # 10     ecut=    60.00 Ry     beta=0.70
     Davidson diagonalization with overlap
     ethr =  8.76E-04,  avg # of iterations =  2.0

     total cpu time spent up to now is      606.5 secs

     total energy              =   -2618.55464337 Ry
     Harris-Foulkes estimate   =   -2618.39503770 Ry
     estimated scf accuracy    <      90.50113874 Ry

     iteration # 11     ecut=    60.00 Ry     beta=0.70
     Davidson diagonalization with overlap
     ethr =  8.76E-04,  avg # of iterations = 13.0

     total cpu time spent up to now is      664.0 secs

     total energy              =   -2608.29228724 Ry
     Harris-Foulkes estimate   =   -2620.57491616 Ry
     estimated scf accuracy    <      39.30237535 Ry

     iteration # 12     ecut=    60.00 Ry     beta=0.70
     Davidson diagonalization with overlap
     ethr =  8.76E-04,  avg # of iterations =  5.0

     total cpu time spent up to now is      730.3 secs

     total energy              =   -2613.46991218 Ry
     Harris-Foulkes estimate   =   -2613.54061414 Ry
     estimated scf accuracy    <       6.63621692 Ry

     iteration # 13     ecut=    60.00 Ry     beta=0.70
     Davidson diagonalization with overlap
     ethr =  8.76E-04,  avg # of iterations =  1.0

     total cpu time spent up to now is      775.9 secs

     total energy              =   -2613.24942881 Ry
     Harris-Foulkes estimate   =   -2613.47998093 Ry
     estimated scf accuracy    <       6.56801661 Ry

     iteration # 14     ecut=    60.00 Ry     beta=0.70
     Davidson diagonalization with overlap
     ethr =  8.76E-04,  avg # of iterations =  1.0

     negative rho (up, down):  0.212E-04 0.000E+00

     total cpu time spent up to now is      821.5 secs

     total energy              =   -2611.41765841 Ry
     Harris-Foulkes estimate   =   -2613.25654088 Ry
     estimated scf accuracy    <       6.20799438 Ry

     iteration # 15     ecut=    60.00 Ry     beta=0.70
     Davidson diagonalization with overlap
     ethr =  8.76E-04,  avg # of iterations =  5.0

     negative rho (up, down):  0.332E-07 0.000E+00

     total cpu time spent up to now is      893.2 secs

     total energy              =   -2612.20278828 Ry
     Harris-Foulkes estimate   =   -2619.94286814 Ry
     estimated scf accuracy    <      54.16826811 Ry

     iteration # 16     ecut=    60.00 Ry     beta=0.70
     Davidson diagonalization with overlap
     ethr =  8.76E-04,  avg # of iterations = 16.0

     total cpu time spent up to now is      950.9 secs

     total energy              =   -2608.20619076 Ry
     Harris-Foulkes estimate   =   -2613.65290669 Ry
     estimated scf accuracy    <      17.56145833 Ry

     iteration # 17     ecut=    60.00 Ry     beta=0.70
     Davidson diagonalization with overlap
     ethr =  8.76E-04,  avg # of iterations =  5.0

     total cpu time spent up to now is     1017.4 secs

     total energy              =   -2611.71349451 Ry
     Harris-Foulkes estimate   =   -2611.74939054 Ry
     estimated scf accuracy    <       0.20889919 Ry

     iteration # 18     ecut=    60.00 Ry     beta=0.70
     Davidson diagonalization with overlap
     ethr =  7.25E-05,  avg # of iterations =  5.0

     total cpu time spent up to now is     1083.2 secs

     total energy              =   -2611.77116637 Ry
     Harris-Foulkes estimate   =   -2611.97710951 Ry
     estimated scf accuracy    <       1.08320078 Ry

     iteration # 19     ecut=    60.00 Ry     beta=0.70
     Davidson diagonalization with overlap
     ethr =  7.25E-05,  avg # of iterations =  2.0

     total cpu time spent up to now is     1129.5 secs

     total energy              =   -2611.92298056 Ry
     Harris-Foulkes estimate   =   -2611.77676099 Ry
     estimated scf accuracy    <       0.73479380 Ry

     iteration # 20     ecut=    60.00 Ry     beta=0.70
     Davidson diagonalization with overlap
     ethr =  7.25E-05,  avg # of iterations =  6.0

     total cpu time spent up to now is     1187.0 secs

     total energy              =   -2611.80977011 Ry
     Harris-Foulkes estimate   =   -2612.04150558 Ry
     estimated scf accuracy    <       1.28608563 Ry

     iteration # 21     ecut=    60.00 Ry     beta=0.70
     Davidson diagonalization with overlap
     ethr =  7.25E-05,  avg # of iterations =  8.0

     total cpu time spent up to now is     1241.8 secs

     total energy              =   -2611.55344744 Ry
     Harris-Foulkes estimate   =   -2611.87670088 Ry
     estimated scf accuracy    <       0.70608849 Ry

     iteration # 22     ecut=    60.00 Ry     beta=0.70
     Davidson diagonalization with overlap
     ethr =  7.25E-05,  avg # of iterations =  5.0

     total cpu time spent up to now is     1307.7 secs

     total energy              =   -2611.73185550 Ry
     Harris-Foulkes estimate   =   -2611.79224290 Ry
     estimated scf accuracy    <       0.26151325 Ry

     iteration # 23     ecut=    60.00 Ry     beta=0.70
     Davidson diagonalization with overlap
     ethr =  7.25E-05,  avg # of iterations =  1.0

     total cpu time spent up to now is     1353.3 secs

     total energy              =   -2611.65098941 Ry
     Harris-Foulkes estimate   =   -2611.73369874 Ry
     estimated scf accuracy    <       0.16704585 Ry

     iteration # 24     ecut=    60.00 Ry     beta=0.70
     Davidson diagonalization with overlap
     ethr =  5.80E-05,  avg # of iterations =  6.0

     total cpu time spent up to now is     1416.0 secs

     total energy              =   -2611.75101218 Ry
     Harris-Foulkes estimate   =   -2611.79733827 Ry
     estimated scf accuracy    <       0.30419117 Ry

     iteration # 25     ecut=    60.00 Ry     beta=0.70
     Davidson diagonalization with overlap
     ethr =  5.80E-05,  avg # of iterations =  1.0

     total cpu time spent up to now is     1461.6 secs

     total energy              =   -2611.62597310 Ry
     Harris-Foulkes estimate   =   -2611.75199111 Ry
     estimated scf accuracy    <       0.23243004 Ry

     iteration # 26     ecut=    60.00 Ry     beta=0.70
     Davidson diagonalization with overlap
     ethr =  5.80E-05,  avg # of iterations =  6.0

     total cpu time spent up to now is     1526.5 secs

     total energy              =   -2611.75724380 Ry
     Harris-Foulkes estimate   =   -2611.82742589 Ry
     estimated scf accuracy    <       0.49637550 Ry

     iteration # 27     ecut=    60.00 Ry     beta=0.70
     Davidson diagonalization with overlap
     ethr =  5.80E-05,  avg # of iterations =  1.0

     total cpu time spent up to now is     1572.1 secs

     total energy              =   -2611.70265678 Ry
     Harris-Foulkes estimate   =   -2611.75810755 Ry
     estimated scf accuracy    <       0.39448703 Ry

     iteration # 28     ecut=    60.00 Ry     beta=0.70
     Davidson diagonalization with overlap
     ethr =  5.80E-05,  avg # of iterations =  7.0

     total cpu time spent up to now is     1625.3 secs

     total energy              =   -2611.71791543 Ry
     Harris-Foulkes estimate   =   -2611.73588942 Ry
     estimated scf accuracy    <       0.06243028 Ry

     iteration # 29     ecut=    60.00 Ry     beta=0.70
     Davidson diagonalization with overlap
     ethr =  2.17E-05,  avg # of iterations = 11.0

     total cpu time spent up to now is     1678.1 secs

     total energy              =   -2611.72785145 Ry
     Harris-Foulkes estimate   =   -2611.73092828 Ry
     estimated scf accuracy    <       0.01121376 Ry

     iteration # 30     ecut=    60.00 Ry     beta=0.70
     Davidson diagonalization with overlap
     ethr =  3.89E-06,  avg # of iterations =  5.0

     total cpu time spent up to now is     1744.9 secs

     total energy              =   -2611.74086295 Ry
     Harris-Foulkes estimate   =   -2611.74624232 Ry
     estimated scf accuracy    <       0.03131788 Ry

     iteration # 31     ecut=    60.00 Ry     beta=0.70
     Davidson diagonalization with overlap
     ethr =  3.89E-06,  avg # of iterations =  1.0

     total cpu time spent up to now is     1790.9 secs

     total energy              =   -2611.73322483 Ry
     Harris-Foulkes estimate   =   -2611.74097015 Ry
     estimated scf accuracy    <       0.02332597 Ry

     iteration # 32     ecut=    60.00 Ry     beta=0.70
     Davidson diagonalization with overlap
     ethr =  3.89E-06,  avg # of iterations =  7.0

     total cpu time spent up to now is     1850.3 secs

     total energy              =   -2611.74008045 Ry
     Harris-Foulkes estimate   =   -2611.74063882 Ry
     estimated scf accuracy    <       0.00473297 Ry

     iteration # 33     ecut=    60.00 Ry     beta=0.70
     Davidson diagonalization with overlap
     ethr =  1.64E-06,  avg # of iterations =  1.0

     total cpu time spent up to now is     1896.2 secs

     total energy              =   -2611.73992955 Ry
     Harris-Foulkes estimate   =   -2611.74012540 Ry
     estimated scf accuracy    <       0.00386291 Ry

     iteration # 34     ecut=    60.00 Ry     beta=0.70
     Davidson diagonalization with overlap
     ethr =  1.34E-06,  avg # of iterations =  1.0

     total cpu time spent up to now is     1942.1 secs

     total energy              =   -2611.74041811 Ry
     Harris-Foulkes estimate   =   -2611.73997382 Ry
     estimated scf accuracy    <       0.00334837 Ry

     iteration # 35     ecut=    60.00 Ry     beta=0.70
     Davidson diagonalization with overlap
     ethr =  1.16E-06,  avg # of iterations =  3.0

     total cpu time spent up to now is     1988.7 secs

     total energy              =   -2611.74031289 Ry
     Harris-Foulkes estimate   =   -2611.74052857 Ry
     estimated scf accuracy    <       0.00405654 Ry

     iteration # 36     ecut=    60.00 Ry     beta=0.70
     Davidson diagonalization with overlap
     ethr =  1.16E-06,  avg # of iterations =  1.0

     total cpu time spent up to now is     2034.5 secs

     total energy              =   -2611.73985192 Ry
     Harris-Foulkes estimate   =   -2611.74037515 Ry
     estimated scf accuracy    <       0.00364900 Ry

     iteration # 37     ecut=    60.00 Ry     beta=0.70
     Davidson diagonalization with overlap
     ethr =  1.16E-06,  avg # of iterations =  1.0

     total cpu time spent up to now is     2080.3 secs

     total energy              =   -2611.73947503 Ry
     Harris-Foulkes estimate   =   -2611.73990989 Ry
     estimated scf accuracy    <       0.00282577 Ry

     iteration # 38     ecut=    60.00 Ry     beta=0.70
     Davidson diagonalization with overlap
     ethr =  9.81E-07,  avg # of iterations =  4.0

     total cpu time spent up to now is     2127.8 secs

     total energy              =   -2611.73942532 Ry
     Harris-Foulkes estimate   =   -2611.73957742 Ry
     estimated scf accuracy    <       0.00189228 Ry

     iteration # 39     ecut=    60.00 Ry     beta=0.70
     Davidson diagonalization with overlap
     ethr =  6.57E-07,  avg # of iterations =  8.0

     total cpu time spent up to now is     2176.7 secs

     total energy              =   -2611.73946749 Ry
     Harris-Foulkes estimate   =   -2611.73953247 Ry
     estimated scf accuracy    <       0.00136583 Ry

     iteration # 40     ecut=    60.00 Ry     beta=0.70
     Davidson diagonalization with overlap
     ethr =  4.74E-07,  avg # of iterations = 10.0

     total cpu time spent up to now is     2229.7 secs

     total energy              =   -2611.73962002 Ry
     Harris-Foulkes estimate   =   -2611.73982937 Ry
     estimated scf accuracy    <       0.00039701 Ry

     iteration # 41     ecut=    60.00 Ry     beta=0.70
     Davidson diagonalization with overlap
     ethr =  1.38E-07,  avg # of iterations =  5.0

     total cpu time spent up to now is     2299.5 secs

     total energy              =   -2611.73966761 Ry
     Harris-Foulkes estimate   =   -2611.74114710 Ry
     estimated scf accuracy    <       0.00665064 Ry

     iteration # 42     ecut=    60.00 Ry     beta=0.70
     Davidson diagonalization with overlap
     ethr =  1.38E-07,  avg # of iterations =  6.0

     total cpu time spent up to now is     2362.7 secs

     total energy              =   -2611.73997505 Ry
     Harris-Foulkes estimate   =   -2611.74006078 Ry
     estimated scf accuracy    <       0.00091307 Ry

     iteration # 43     ecut=    60.00 Ry     beta=0.70
     Davidson diagonalization with overlap
     ethr =  1.38E-07,  avg # of iterations =  1.0

     total cpu time spent up to now is     2408.5 secs

     total energy              =   -2611.73965131 Ry
     Harris-Foulkes estimate   =   -2611.73997868 Ry
     estimated scf accuracy    <       0.00076655 Ry

     iteration # 44     ecut=    60.00 Ry     beta=0.70
     Davidson diagonalization with overlap
     ethr =  1.38E-07,  avg # of iterations =  7.0

     total cpu time spent up to now is     2469.7 secs

     total energy              =   -2611.73990003 Ry
     Harris-Foulkes estimate   =   -2611.73999648 Ry
     estimated scf accuracy    <       0.00049848 Ry

     iteration # 45     ecut=    60.00 Ry     beta=0.70
     Davidson diagonalization with overlap
     ethr =  1.38E-07,  avg # of iterations =  1.0

     total cpu time spent up to now is     2515.5 secs

     total energy              =   -2611.73980383 Ry
     Harris-Foulkes estimate   =   -2611.73990317 Ry
     estimated scf accuracy    <       0.00035041 Ry

     iteration # 46     ecut=    60.00 Ry     beta=0.70
     Davidson diagonalization with overlap
     ethr =  1.22E-07,  avg # of iterations = 13.0

     total cpu time spent up to now is     2567.9 secs

     total energy              =   -2611.73983594 Ry
     Harris-Foulkes estimate   =   -2611.73984795 Ry
     estimated scf accuracy    <       0.00008278 Ry

     iteration # 47     ecut=    60.00 Ry     beta=0.70
     Davidson diagonalization with overlap
     ethr =  2.87E-08,  avg # of iterations =  6.0

     total cpu time spent up to now is     2634.4 secs

     total energy              =   -2611.73991529 Ry
     Harris-Foulkes estimate   =   -2611.73995193 Ry
     estimated scf accuracy    <       0.00022922 Ry

     iteration # 48     ecut=    60.00 Ry     beta=0.70
     Davidson diagonalization with overlap
     ethr =  2.87E-08,  avg # of iterations =  1.0

     total cpu time spent up to now is     2680.2 secs

     total energy              =   -2611.73993130 Ry
     Harris-Foulkes estimate   =   -2611.73991600 Ry
     estimated scf accuracy    <       0.00017327 Ry

     iteration # 49     ecut=    60.00 Ry     beta=0.70
     Davidson diagonalization with overlap
     ethr =  2.87E-08,  avg # of iterations =  3.0

     total cpu time spent up to now is     2726.7 secs

     total energy              =   -2611.73992496 Ry
     Harris-Foulkes estimate   =   -2611.73993310 Ry
     estimated scf accuracy    <       0.00018776 Ry

     iteration # 50     ecut=    60.00 Ry     beta=0.70
     Davidson diagonalization with overlap
     ethr =  2.87E-08,  avg # of iterations =  6.0

     total cpu time spent up to now is     2785.5 secs

     total energy              =   -2611.73990997 Ry
     Harris-Foulkes estimate   =   -2611.73996983 Ry
     estimated scf accuracy    <       0.00030997 Ry

     iteration # 51     ecut=    60.00 Ry     beta=0.70
     Davidson diagonalization with overlap
     ethr =  2.87E-08,  avg # of iterations =  1.0

     total cpu time spent up to now is     2831.5 secs

     total energy              =   -2611.73990009 Ry
     Harris-Foulkes estimate   =   -2611.73991110 Ry
     estimated scf accuracy    <       0.00022040 Ry

     iteration # 52     ecut=    60.00 Ry     beta=0.70
     Davidson diagonalization with overlap
     ethr =  2.87E-08,  avg # of iterations =  7.0

     total cpu time spent up to now is     2883.1 secs

     total energy              =   -2611.73985896 Ry
     Harris-Foulkes estimate   =   -2611.73991461 Ry
     estimated scf accuracy    <       0.00008953 Ry

     iteration # 53     ecut=    60.00 Ry     beta=0.70
     Davidson diagonalization with overlap
     ethr =  2.87E-08,  avg # of iterations =  5.0

     total cpu time spent up to now is     2949.7 secs

     total energy              =   -2611.73994426 Ry
     Harris-Foulkes estimate   =   -2611.73999587 Ry
     estimated scf accuracy    <       0.00048354 Ry

     iteration # 54     ecut=    60.00 Ry     beta=0.70
     Davidson diagonalization with overlap
     ethr =  2.87E-08,  avg # of iterations =  1.0

     total cpu time spent up to now is     2996.4 secs

     total energy              =   -2611.73984889 Ry
     Harris-Foulkes estimate   =   -2611.73994479 Ry
     estimated scf accuracy    <       0.00040660 Ry

     iteration # 55     ecut=    60.00 Ry     beta=0.70
     Davidson diagonalization with overlap
     ethr =  2.87E-08,  avg # of iterations =  6.0

     total cpu time spent up to now is     3057.1 secs

     total energy              =   -2611.73990308 Ry
     Harris-Foulkes estimate   =   -2611.73991475 Ry
     estimated scf accuracy    <       0.00002394 Ry

     iteration # 56     ecut=    60.00 Ry     beta=0.70
     Davidson diagonalization with overlap
     ethr =  8.31E-09,  avg # of iterations = 10.0

     total cpu time spent up to now is     3113.4 secs

     total energy              =   -2611.73990740 Ry
     Harris-Foulkes estimate   =   -2611.73991297 Ry
     estimated scf accuracy    <       0.00001408 Ry

     iteration # 57     ecut=    60.00 Ry     beta=0.70
     Davidson diagonalization with overlap
     ethr =  4.89E-09,  avg # of iterations =  4.0

     total cpu time spent up to now is     3160.1 secs

     total energy              =   -2611.73990571 Ry
     Harris-Foulkes estimate   =   -2611.73990786 Ry
     estimated scf accuracy    <       0.00000508 Ry

     iteration # 58     ecut=    60.00 Ry     beta=0.70
     Davidson diagonalization with overlap
     ethr =  1.76E-09,  avg # of iterations =  5.0

     total cpu time spent up to now is     3226.0 secs

     total energy              =   -2611.73991174 Ry
     Harris-Foulkes estimate   =   -2611.73991322 Ry
     estimated scf accuracy    <       0.00001146 Ry

     iteration # 59     ecut=    60.00 Ry     beta=0.70
     Davidson diagonalization with overlap
     ethr =  1.76E-09,  avg # of iterations =  1.0

     total cpu time spent up to now is     3271.9 secs

     total energy              =   -2611.73991023 Ry
     Harris-Foulkes estimate   =   -2611.73991179 Ry
     estimated scf accuracy    <       0.00000914 Ry

     iteration # 60     ecut=    60.00 Ry     beta=0.70
     Davidson diagonalization with overlap
     ethr =  1.76E-09,  avg # of iterations =  8.0

     total cpu time spent up to now is     3323.2 secs

     total energy              =   -2611.73991098 Ry
     Harris-Foulkes estimate   =   -2611.73991102 Ry
     estimated scf accuracy    <       0.00000285 Ry

     iteration # 61     ecut=    60.00 Ry     beta=0.70
     Davidson diagonalization with overlap
     ethr =  9.90E-10,  avg # of iterations =  3.0

     total cpu time spent up to now is     3370.1 secs

     total energy              =   -2611.73991047 Ry
     Harris-Foulkes estimate   =   -2611.73991106 Ry
     estimated scf accuracy    <       0.00000269 Ry

     iteration # 62     ecut=    60.00 Ry     beta=0.70
     Davidson diagonalization with overlap
     ethr =  9.33E-10,  avg # of iterations =  1.0

     total cpu time spent up to now is     3415.8 secs

     total energy              =   -2611.73991006 Ry
     Harris-Foulkes estimate   =   -2611.73991053 Ry
     estimated scf accuracy    <       0.00000177 Ry

     iteration # 63     ecut=    60.00 Ry     beta=0.70
     Davidson diagonalization with overlap
     ethr =  6.14E-10,  avg # of iterations =  5.0

     total cpu time spent up to now is     3478.2 secs

     total energy              =   -2611.73991102 Ry
     Harris-Foulkes estimate   =   -2611.73991142 Ry
     estimated scf accuracy    <       0.00000205 Ry

     iteration # 64     ecut=    60.00 Ry     beta=0.70
     Davidson diagonalization with overlap
     ethr =  6.14E-10,  avg # of iterations =  1.0

     total cpu time spent up to now is     3524.0 secs

     total energy              =   -2611.73991079 Ry
     Harris-Foulkes estimate   =   -2611.73991105 Ry
     estimated scf accuracy    <       0.00000148 Ry

     iteration # 65     ecut=    60.00 Ry     beta=0.70
     Davidson diagonalization with overlap
     ethr =  5.14E-10,  avg # of iterations =  1.0

     total cpu time spent up to now is     3569.7 secs

     total energy              =   -2611.73991061 Ry
     Harris-Foulkes estimate   =   -2611.73991082 Ry
     estimated scf accuracy    <       0.00000104 Ry

     iteration # 66     ecut=    60.00 Ry     beta=0.70
     Davidson diagonalization with overlap
     ethr =  3.60E-10,  avg # of iterations =  8.0

     total cpu time spent up to now is     3627.6 secs

     total energy              =   -2611.73991107 Ry
     Harris-Foulkes estimate   =   -2611.73991116 Ry
     estimated scf accuracy    <       0.00000081 Ry

     iteration # 67     ecut=    60.00 Ry     beta=0.70
     Davidson diagonalization with overlap
     ethr =  2.82E-10,  avg # of iterations =  1.0

     total cpu time spent up to now is     3673.3 secs

     total energy              =   -2611.73991096 Ry
     Harris-Foulkes estimate   =   -2611.73991108 Ry
     estimated scf accuracy    <       0.00000066 Ry

     iteration # 68     ecut=    60.00 Ry     beta=0.70
     Davidson diagonalization with overlap
     ethr =  2.31E-10,  avg # of iterations =  6.0

     total cpu time spent up to now is     3729.8 secs

     total energy              =   -2611.73991123 Ry
     Harris-Foulkes estimate   =   -2611.73991125 Ry
     estimated scf accuracy    <       0.00000116 Ry

     iteration # 69     ecut=    60.00 Ry     beta=0.70
     Davidson diagonalization with overlap
     ethr =  2.31E-10,  avg # of iterations =  1.0

     total cpu time spent up to now is     3775.5 secs

     total energy              =   -2611.73991121 Ry
     Harris-Foulkes estimate   =   -2611.73991123 Ry
     estimated scf accuracy    <       0.00000115 Ry

     iteration # 70     ecut=    60.00 Ry     beta=0.70
     Davidson diagonalization with overlap
     ethr =  2.31E-10,  avg # of iterations =  1.0

     total cpu time spent up to now is     3821.3 secs

     total energy              =   -2611.73991118 Ry
     Harris-Foulkes estimate   =   -2611.73991121 Ry
     estimated scf accuracy    <       0.00000110 Ry

     iteration # 71     ecut=    60.00 Ry     beta=0.70
     Davidson diagonalization with overlap
     ethr =  2.31E-10,  avg # of iterations =  1.0

     total cpu time spent up to now is     3867.0 secs

     total energy              =   -2611.73991060 Ry
     Harris-Foulkes estimate   =   -2611.73991118 Ry
     estimated scf accuracy    <       0.00000106 Ry

     iteration # 72     ecut=    60.00 Ry     beta=0.70
     Davidson diagonalization with overlap
     ethr =  2.31E-10,  avg # of iterations =  5.0

     total cpu time spent up to now is     3931.6 secs

     total energy              =   -2611.73991124 Ry
     Harris-Foulkes estimate   =   -2611.73991164 Ry
     estimated scf accuracy    <       0.00000344 Ry

     iteration # 73     ecut=    60.00 Ry     beta=0.70
     Davidson diagonalization with overlap
     ethr =  2.31E-10,  avg # of iterations =  1.0

     total cpu time spent up to now is     3977.3 secs

     total energy              =   -2611.73991048 Ry
     Harris-Foulkes estimate   =   -2611.73991125 Ry
     estimated scf accuracy    <       0.00000284 Ry

     iteration # 74     ecut=    60.00 Ry     beta=0.70
     Davidson diagonalization with overlap
     ethr =  2.31E-10,  avg # of iterations =  5.0

     total cpu time spent up to now is     4039.6 secs

     total energy              =   -2611.73991116 Ry
     Harris-Foulkes estimate   =   -2611.73991115 Ry
     estimated scf accuracy    <       0.00000066 Ry

     iteration # 75     ecut=    60.00 Ry     beta=0.70
     Davidson diagonalization with overlap
     ethr =  2.28E-10,  avg # of iterations = 12.0

     total cpu time spent up to now is     4092.1 secs

     total energy              =   -2611.73991120 Ry
     Harris-Foulkes estimate   =   -2611.73991125 Ry
     estimated scf accuracy    <       0.00000100 Ry

     iteration # 76     ecut=    60.00 Ry     beta=0.70
     Davidson diagonalization with overlap
     ethr =  2.28E-10,  avg # of iterations =  1.0

     total cpu time spent up to now is     4137.8 secs

     total energy              =   -2611.73991185 Ry
     Harris-Foulkes estimate   =   -2611.73991121 Ry
     estimated scf accuracy    <       0.00000092 Ry

     iteration # 77     ecut=    60.00 Ry     beta=0.70
     Davidson diagonalization with overlap
     ethr =  2.28E-10,  avg # of iterations =  7.0

     total cpu time spent up to now is     4201.3 secs

     total energy              =   -2611.73991060 Ry
     Harris-Foulkes estimate   =   -2611.73991277 Ry
     estimated scf accuracy    <       0.00000994 Ry

     iteration # 78     ecut=    60.00 Ry     beta=0.70
     Davidson diagonalization with overlap
     ethr =  2.28E-10,  avg # of iterations =  7.0

     total cpu time spent up to now is     4263.8 secs

     total energy              =   -2611.73991079 Ry
     Harris-Foulkes estimate   =   -2611.73991124 Ry
     estimated scf accuracy    <       0.00000124 Ry

     iteration # 79     ecut=    60.00 Ry     beta=0.70
     Davidson diagonalization with overlap
     ethr =  2.28E-10,  avg # of iterations =  1.0

     total cpu time spent up to now is     4309.5 secs

     total energy              =   -2611.73991069 Ry
     Harris-Foulkes estimate   =   -2611.73991080 Ry
     estimated scf accuracy    <       0.00000056 Ry

     iteration # 80     ecut=    60.00 Ry     beta=0.70
     Davidson diagonalization with overlap
     ethr =  1.94E-10,  avg # of iterations =  5.0

     total cpu time spent up to now is     4371.0 secs

     total energy              =   -2611.73991108 Ry
     Harris-Foulkes estimate   =   -2611.73991115 Ry
     estimated scf accuracy    <       0.00000071 Ry

     iteration # 81     ecut=    60.00 Ry     beta=0.70
     Davidson diagonalization with overlap
     ethr =  1.94E-10,  avg # of iterations =  1.0

     total cpu time spent up to now is     4416.7 secs

     total energy              =   -2611.73991104 Ry
     Harris-Foulkes estimate   =   -2611.73991109 Ry
     estimated scf accuracy    <       0.00000063 Ry

     iteration # 82     ecut=    60.00 Ry     beta=0.70
     Davidson diagonalization with overlap
     ethr =  1.94E-10,  avg # of iterations =  1.0

     total cpu time spent up to now is     4462.4 secs

     total energy              =   -2611.73991101 Ry
     Harris-Foulkes estimate   =   -2611.73991105 Ry
     estimated scf accuracy    <       0.00000051 Ry

     iteration # 83     ecut=    60.00 Ry     beta=0.70
     Davidson diagonalization with overlap
     ethr =  1.77E-10,  avg # of iterations =  1.0

     total cpu time spent up to now is     4508.3 secs

     total energy              =   -2611.73991099 Ry
     Harris-Foulkes estimate   =   -2611.73991101 Ry
     estimated scf accuracy    <       0.00000045 Ry

     iteration # 84     ecut=    60.00 Ry     beta=0.70
     Davidson diagonalization with overlap
     ethr =  1.56E-10,  avg # of iterations =  1.0

     total cpu time spent up to now is     4554.1 secs

     total energy              =   -2611.73991099 Ry
     Harris-Foulkes estimate   =   -2611.73991099 Ry
     estimated scf accuracy    <       0.00000039 Ry

     iteration # 85     ecut=    60.00 Ry     beta=0.70
     Davidson diagonalization with overlap
     ethr =  1.36E-10,  avg # of iterations =  1.0

     total cpu time spent up to now is     4599.8 secs

     total energy              =   -2611.73991091 Ry
     Harris-Foulkes estimate   =   -2611.73991099 Ry
     estimated scf accuracy    <       0.00000037 Ry

     iteration # 86     ecut=    60.00 Ry     beta=0.70
     Davidson diagonalization with overlap
     ethr =  1.29E-10,  avg # of iterations =  1.0

     total cpu time spent up to now is     4645.6 secs

     total energy              =   -2611.73991088 Ry
     Harris-Foulkes estimate   =   -2611.73991092 Ry
     estimated scf accuracy    <       0.00000023 Ry

     iteration # 87     ecut=    60.00 Ry     beta=0.70
     Davidson diagonalization with overlap
     ethr =  8.10E-11,  avg # of iterations =  7.0

     total cpu time spent up to now is     4705.3 secs

     total energy              =   -2611.73991104 Ry
     Harris-Foulkes estimate   =   -2611.73991108 Ry
     estimated scf accuracy    <       0.00000028 Ry

     iteration # 88     ecut=    60.00 Ry     beta=0.70
     Davidson diagonalization with overlap
     ethr =  8.10E-11,  avg # of iterations =  1.0

     total cpu time spent up to now is     4751.0 secs

     total energy              =   -2611.73991087 Ry
     Harris-Foulkes estimate   =   -2611.73991104 Ry
     estimated scf accuracy    <       0.00000022 Ry

     iteration # 89     ecut=    60.00 Ry     beta=0.70
     Davidson diagonalization with overlap
     ethr =  7.58E-11,  avg # of iterations =  5.0

     total cpu time spent up to now is     4816.7 secs

     total energy              =   -2611.73991104 Ry
     Harris-Foulkes estimate   =   -2611.73991126 Ry
     estimated scf accuracy    <       0.00000137 Ry

     iteration # 90     ecut=    60.00 Ry     beta=0.70
     Davidson diagonalization with overlap
     ethr =  7.58E-11,  avg # of iterations =  1.0

     total cpu time spent up to now is     4862.5 secs

     total energy              =   -2611.73991085 Ry
     Harris-Foulkes estimate   =   -2611.73991105 Ry
     estimated scf accuracy    <       0.00000104 Ry

     iteration # 91     ecut=    60.00 Ry     beta=0.70
     Davidson diagonalization with overlap
     ethr =  7.58E-11,  avg # of iterations =  6.0

     total cpu time spent up to now is     4921.7 secs

     End of self-consistent calculation

          k =-0.0127-0.0157 0.0247 (107820 PWs)   bands (ev):

   -17.7100 -17.7100 -17.7096 -17.7096 -17.4777 -17.4777 -17.4776 -17.4776
   -15.4106 -15.4106 -15.4100 -15.4100 -15.0101 -15.0101 -15.0100 -15.0100
   -14.7393 -14.7393 -14.7390 -14.7390 -14.5618 -14.5618 -14.5610 -14.5610
   -13.8341 -13.8341 -13.8336 -13.8336 -12.3062 -12.3061 -12.3060 -12.3060
   -11.5529 -11.5529 -11.5523 -11.5523 -11.0232 -11.0232 -11.0221 -11.0221
   -10.9112 -10.9112 -10.9108 -10.9108 -10.5321 -10.5320 -10.5315 -10.5315
    -9.6554  -9.6554  -9.6552  -9.6552  -8.8125  -8.8124  -8.8121  -8.8120
    -8.1459  -8.1458  -8.1454  -8.1453  -7.5413  -7.5413  -7.5412  -7.5412
    -7.3152  -7.3152  -7.3149  -7.3149  -7.0954  -7.0952  -7.0945  -7.0943
    -6.9155  -6.9154  -6.9149  -6.9148  -6.3541  -6.3540  -6.3536  -6.3536
    -6.1381  -6.1381  -6.1377  -6.1376  -5.8477  -5.8475  -5.8472  -5.8470
    -5.6105  -5.6105  -5.6102  -5.6102  -5.4102  -5.4102  -5.4095  -5.4095
    -5.2396  -5.2394  -5.2390  -5.2389  -4.4800  -4.4798  -4.4796  -4.4794
    -4.2981  -4.2980  -4.2973  -4.2972  -4.2223  -4.2222  -4.2222  -4.2221
    -3.5966  -3.5965  -3.5962  -3.5961  -3.3065  -3.3062  -3.3059  -3.3056
    -2.7868  -2.7865  -2.7862  -2.7859  -2.6483  -2.6482  -2.6480  -2.6478
    -2.5630  -2.5628  -2.5624  -2.5622  -2.3775  -2.3774  -2.3772  -2.3770
    -1.9666  -1.9665  -1.9660  -1.9659  -1.9060  -1.9057  -1.9056  -1.9053
 TIME (initial):        0.0
* Atoms contributing density to the main cell
  Number of atoms:   20700
 
 TIME (set up the environment):        0.2
 DOCALC: T F T T
 ESAVE:       0.000000000000       0.000000000000       0.000000000000
* XDM: using PAW all-electron density reconstruction? T
 TIME (promolecular grid):       58.7
 TIME (calculation of b grid):       59.8
 TIME (calculation of volumes and moments):      395.0
 
+ Volume and moments
# All results in atomic units.
# i              V                  Vfree                 M1                  M2                  M3
  1        31.1139019364        39.0349749523         4.1765140174        54.0728440111       943.7224610102
  2        31.1134612584        39.0349749523         4.1764462117        54.0705967517       943.6223725186
  3        31.1139019364        39.0349749523         4.1765140174        54.0728440111       943.7224610101
  4        31.1134612584        39.0349749523         4.1764462117        54.0705967517       943.6223725186
  5        31.9430079128        39.0349749523         4.1382056127        54.2672782243       974.8740434362
  6        31.9426951272        39.0349749523         4.1381480390        54.2642956069       974.7869436443
  7        31.9430079128        39.0349749523         4.1382056127        54.2672782243       974.8740434362
  8        31.9426951272        39.0349749523         4.1381480390        54.2642956068       974.7869436443
  9        31.5884486053        39.0349749523         4.1075945466        53.5431761644       962.0460119344
 10        31.5883372505        39.0349749523         4.1074343496        53.5405668249       961.9775800124
 11        31.5884486053        39.0349749523         4.1075945466        53.5431761644       962.0460119343
 12        31.5883372505        39.0349749523         4.1074343496        53.5405668249       961.9775800124
 13        32.2756216598        39.0349749523         4.1971687443        55.9472717302      1036.9423976054
 14        32.2736831763        39.0349749523         4.1974562751        55.9485904173      1036.9069633086
 15        32.2756216598        39.0349749523         4.1971687443        55.9472717302      1036.9423976054
 16        32.2736831763        39.0349749523         4.1974562751        55.9485904173      1036.9069633086
 17        32.3360153962        39.0349749523         4.1717612285        55.6063425255      1035.7510285118
 18        32.3347535005        39.0349749523         4.1717362364        55.6029272740      1035.6348919014
 19        32.3360153962        39.0349749523         4.1717612285        55.6063425255      1035.7510285118
 20        32.3347535005        39.0349749523         4.1717362364        55.6029272740      1035.6348919014
 21        33.5222188958        39.0349749523         3.8105103112        51.1062649980       988.3647042443
 22        33.5219211913        39.0349749523         3.8100118602        51.0996959126       988.2704333208
 23        33.5222188958        39.0349749523         3.8105103112        51.1062649980       988.3647042444
 24        33.5219211913        39.0349749523         3.8100118602        51.0996959126       988.2704333208
 25        31.8813034389        39.0349749523         4.1533084104        54.8368581465      1004.3756971791
 26        31.8814475253        39.0349749523         4.1531350998        54.8365698732      1004.3817970004
 27        31.8813034389        39.0349749523         4.1533084104        54.8368581465      1004.3756971791
 28        31.8814475253        39.0349749523         4.1531350998        54.8365698732      1004.3817970004
 29        32.8813705524        39.0349749523         4.0042206836        52.9878445129       996.9411607806
 30        32.8817294758        39.0349749523         4.0040870293        52.9847413908       996.8786444204
 31        32.8813705524        39.0349749523         4.0042206836        52.9878445129       996.9411607807
 32        32.8817294758        39.0349749523         4.0040870293        52.9847413908       996.8786444204
 33        33.5199435522        39.0349749523         3.8464726639        51.9605069696      1010.1268054036
 34        33.5193788397        39.0349749523         3.8460854382        51.9555619333      1010.0410360636
 35        33.5199435522        39.0349749523         3.8464726639        51.9605069696      1010.1268054036
 36        33.5193788397        39.0349749523         3.8460854382        51.9555619333      1010.0410360636
 37        33.8823808139        39.0349749523         3.7787170251        50.7279230516       994.8411052467
 38        33.8821933503        39.0349749523         3.7783622802        50.7229400481       994.7609279252
 39        33.8823808139        39.0349749523         3.7787170251        50.7279230516       994.8411052467
 40        33.8821933503        39.0349749523         3.7783622802        50.7229400481       994.7609279252
 41        32.5628633184        39.0349749523         4.1138200492        54.7004270987      1008.8085699343
 42        32.5628275581        39.0349749523         4.1137844657        54.6996461242      1008.7758205881
 43        32.5628633184        39.0349749523         4.1138200492        54.7004270987      1008.8085699342
 44        32.5628275581        39.0349749523         4.1137844657        54.6996461242      1008.7758205881
 45        33.8445935830        39.0349749523         3.8522409250        52.1543172545      1015.7944096718
 46        33.8440994399        39.0349749523         3.8522529977        52.1532775612      1015.7399495173
 47        33.8445935830        39.0349749523         3.8522409250        52.1543172545      1015.7944096718
 48        33.8440994399        39.0349749523         3.8522529977        52.1532775612      1015.7399495173
 49        93.1735174649       114.0071219785         7.7141057778       159.3527995957      3821.0344545520
 50        93.1733274619       114.0071219785         7.7128382119       159.3284355079      3820.5917065584
 51        93.1735174649       114.0071219785         7.7141057778       159.3527995957      3821.0344545522
 52        93.1733274619       114.0071219785         7.7128382119       159.3284355080      3820.5917065585
 53        94.6835609474       114.0071219785         8.0410657116       170.8200066738      4130.9046825673
 54        94.6831952518       114.0071219785         8.0409812353       170.8130147736      4130.7280001511
 55        94.6835609474       114.0071219785         8.0410657116       170.8200066738      4130.9046825676
 56        94.6831952518       114.0071219785         8.0409812353       170.8130147736      4130.7280001510
 57         6.3200480736        10.4882987305         1.6031180195        13.2071266606       238.5483738221
 58         6.3196179148        10.4882987305         1.6030566316        13.2054300498       238.4813814322
 59         6.3200480736        10.4882987305         1.6031180195        13.2071266606       238.5483738221
 60         6.3196179148        10.4882987305         1.6030566316        13.2054300498       238.4813814322
 61         7.0694712004        10.4882987305         1.6419497205        14.4166895426       266.6046821983
 62         7.0693329476        10.4882987305         1.6418238359        14.4159206162       266.5804380520
 63         7.0694712004        10.4882987305         1.6419497205        14.4166895426       266.6046821983
 64         7.0693329476        10.4882987305         1.6418238359        14.4159206162       266.5804380520
 65         7.9440761233        10.4882987305         1.6364026656        15.3195828531       298.7080457764
 66         7.9423683413        10.4882987305         1.6365107873        15.3209288141       298.7279632257
 67         7.9440761233        10.4882987305         1.6364026656        15.3195828531       298.7080457764
 68         7.9423683413        10.4882987305         1.6365107873        15.3209288141       298.7279632257
 69         6.7852225523        10.4882987305         1.5826072222        13.6016923441       256.1739898632
 70         6.7852736843        10.4882987305         1.5825112852        13.6008937249       256.1553135305
 71         6.7852225523        10.4882987305         1.5826072222        13.6016923441       256.1739898632
 72         6.7852736843        10.4882987305         1.5825112852        13.6008937249       256.1553135305
 73         7.4366381813        10.4882987305         1.6683176432        15.4116405710       302.5681794896
 74         7.4357832763        10.4882987305         1.6680819006        15.4089853425       302.5098300431
 75         7.4366381813        10.4882987305         1.6683176432        15.4116405710       302.5681794896
 76         7.4357832763        10.4882987305         1.6680819006        15.4089853425       302.5098300432
 77         7.2608296605        10.4882987305         1.5908948085        14.3310754820       277.1364242389
 78         7.2610008664        10.4882987305         1.5910411371        14.3317848735       277.1495766568
 79         7.2608296605        10.4882987305         1.5908948085        14.3310754820       277.1364242389
 80         7.2610008664        10.4882987305         1.5910411371        14.3317848735       277.1495766568
 81         8.0732758845        10.4882987305         1.5960722970        14.7873665211       292.1285792748
 82         8.0739981712        10.4882987305         1.5958697017        14.7864338094       292.1182180398
 83         8.0732758845        10.4882987305         1.5960722970        14.7873665211       292.1285792748
 84         8.0739981712        10.4882987305         1.5958697017        14.7864338094       292.1182180398
 85         7.6034330772        10.4882987305         1.6537554204        15.0151092876       284.7506291762
 86         7.6037443851        10.4882987305         1.6536915340        15.0147562962       284.7447617044
 87         7.6034330772        10.4882987305         1.6537554204        15.0151092876       284.7506291762
 88         7.6037443851        10.4882987305         1.6536915340        15.0147562962       284.7447617044
 89        71.2927680227        77.4908459489         7.9623698404       130.9293908153      2199.2010426138
 90        71.2928542100        77.4908459489         7.9625340500       130.9315655378      2199.2097530696
 91        71.2927680227        77.4908459489         7.9623698404       130.9293908153      2199.2010426138
 92        71.2928542100        77.4908459489         7.9625340500       130.9315655378      2199.2097530696
 
+ Dispersion coefficients
# All results in atomic units.
# i   j              C6                  C8                  C10                   Rc                  Rvdw
  1   1        19.7694139823       767.8569500779     31786.2342204373         6.3328332625         7.1394927822
  2   1        19.7691135031       767.8355563306     31784.5961395702         6.3327755497         7.1394694373
  2   2        19.7688130284       767.8141630570     31782.9581101153         6.3327178358         7.1394460921
  3   1        19.7694139823       767.8569500779     31786.2342204361         6.3328332625         7.1394927822
  3   2        19.7691135031       767.8355563306     31784.5961395690         6.3327755497         7.1394694373
  3   3        19.7694139823       767.8569500779     31786.2342204350         6.3328332625         7.1394927822
  4   1        19.7691135031       767.8355563306     31784.5961395696         6.3327755497         7.1394694373
  4   2        19.7688130284       767.8141630570     31782.9581101147         6.3327178358         7.1394460921
  4   3        19.7691135031       767.8355563306     31784.5961395685         6.3327755497         7.1394694373
  4   4        19.7688130284       767.8141630570     31782.9581101142         6.3327178358         7.1394460921
  5   1        19.9358638815       779.3110533307     32618.2696284084         6.3606090787         7.1507280998
  5   2        19.9355612389       779.2894179591     32616.6051966259         6.3605518817         7.1507049636
  5   3        19.9358638815       779.3110533307     32618.2696284073         6.3606090787         7.1507280998
  5   4        19.9355612389       779.2894179591     32616.6051966253         6.3605518817         7.1507049636
  5   5        20.1100545385       791.1529973828     33474.9651058278         6.3881434353         7.1618657470
  6   1        19.9356268653       779.2856907879     32616.5897527156         6.3605461184         7.1507026324
  6   2        19.9353242264       779.2640559196     32614.9253751841         6.3604889205         7.1506794958
  6   3        19.9356268653       779.2856907879     32616.5897527144         6.3605461184         7.1507026324
  6   4        19.9353242264       779.2640559196     32614.9253751835         6.3604889205         7.1506794958
  6   5        20.1098161871       791.1273823411     33473.2573943165         6.3880809266         7.1618404623
  6   6        20.1095778386       791.1017677987     33471.5497432004         6.3880184174         7.1618151773
  7   1        19.9358638815       779.3110533307     32618.2696284080         6.3606090787         7.1507280998
  7   2        19.9355612389       779.2894179591     32616.6051966255         6.3605518817         7.1507049636
  7   3        19.9358638815       779.3110533307     32618.2696284069         6.3606090787         7.1507280998
  7   4        19.9355612389       779.2894179591     32616.6051966249         6.3605518817         7.1507049636
  7   5        20.1100545385       791.1529973828     33474.9651058274         6.3881434353         7.1618657470
  7   6        20.1098161871       791.1273823411     33473.2573943161         6.3880809266         7.1618404623
  7   7        20.1100545385       791.1529973828     33474.9651058270         6.3881434353         7.1618657470
  8   1        19.9356268653       779.2856907879     32616.5897527151         6.3605461184         7.1507026324
  8   2        19.9353242264       779.2640559195     32614.9253751836         6.3604889205         7.1506794958
  8   3        19.9356268653       779.2856907879     32616.5897527139         6.3605461184         7.1507026324
  8   4        19.9353242264       779.2640559195     32614.9253751830         6.3604889205         7.1506794958
  8   5        20.1098161871       791.1273823411     33473.2573943160         6.3880809266         7.1618404623
  8   6        20.1095778386       791.1017677987     33471.5497431999         6.3880184174         7.1618151773
  8   7        20.1098161871       791.1273823411     33473.2573943156         6.3880809266         7.1618404623
  8   8        20.1095778386       791.1017677987     33471.5497431994         6.3880184174         7.1618151773
  9   1        19.7520740670       769.7990702732     32179.1683696421         6.3538206905         7.1479821968
  9   2        19.7517741763       769.7776682026     32177.5234577372         6.3537634101         7.1479590269
  9   3        19.7520740670       769.7990702731     32179.1683696409         6.3538206905         7.1479821968
  9   4        19.7517741763       769.7776682026     32177.5234577366         6.3537634101         7.1479590269
  9   5        19.9239978326       781.4855790511     33024.5642965912         6.3813919576         7.1591347743
  9   6        19.9237616097       781.4602258154     33022.8774637309         6.3813294220         7.1591094787
  9   7        19.9239978326       781.4855790511     33024.5642965907         6.3813919576         7.1591347743
  9   8        19.9237616097       781.4602258154     33022.8774637304         6.3813294220         7.1591094787
  9   9        19.7397314311       771.9320191919     32580.2576201164         6.3746448448         7.1564055672
 10   1        19.7516485127       769.7787260229     32178.0415084036         6.3537992191         7.1479735116
 10   2        19.7513486288       769.7573244847     32176.3966425629         6.3537419382         7.1479503415
 10   3        19.7516485127       769.7787260229     32178.0415084024         6.3537992191         7.1479735116
 10   4        19.7513486288       769.7573244847     32176.3966425623         6.3537419382         7.1479503415
 10   5        19.9235748490       781.4651964136     33023.4240767701         6.3813706732         7.1591261648
 10   6        19.9233386319       781.4398437896     33021.7372918493         6.3813081373         7.1591008690
 10   7        19.9235748490       781.4651964136     33023.4240767697         6.3813706732         7.1591261648
 10   8        19.9233386319       781.4398437896     33021.7372918488         6.3813081373         7.1591008690
 10   9        19.7393117053       771.9118488590     32579.1306404931         6.3746235312         7.1563969459
 10  10        19.7388919945       771.8916792778     32578.0037056504         6.3746022176         7.1563883245
 11   1        19.7520740670       769.7990702732     32179.1683696419         6.3538206905         7.1479821968
 11   2        19.7517741763       769.7776682026     32177.5234577371         6.3537634101         7.1479590269
 11   3        19.7520740670       769.7990702731     32179.1683696408         6.3538206905         7.1479821968
 11   4        19.7517741763       769.7776682026     32177.5234577365         6.3537634101         7.1479590269
 11   5        19.9239978326       781.4855790512     33024.5642965910         6.3813919576         7.1591347743
 11   6        19.9237616097       781.4602258154     33022.8774637307         6.3813294220         7.1591094787
 11   7        19.9239978326       781.4855790511     33024.5642965906         6.3813919576         7.1591347743
 11   8        19.9237616097       781.4602258154     33022.8774637302         6.3813294220         7.1591094787
 11   9        19.7397314311       771.9320191919     32580.2576201162         6.3746448448         7.1564055672
 11  10        19.7393117053       771.9118488590     32579.1306404929         6.3746235312         7.1563969459
 11  11        19.7397314311       771.9320191919     32580.2576201160         6.3746448448         7.1564055672
 12   1        19.7516485127       769.7787260230     32178.0415084035         6.3537992191         7.1479735116
 12   2        19.7513486288       769.7573244847     32176.3966425628         6.3537419382         7.1479503415
 12   3        19.7516485127       769.7787260229     32178.0415084023         6.3537992191         7.1479735116
 12   4        19.7513486288       769.7573244847     32176.3966425622         6.3537419382         7.1479503415
 12   5        19.9235748490       781.4651964136     33023.4240767700         6.3813706732         7.1591261648
 12   6        19.9233386319       781.4398437896     33021.7372918492         6.3813081373         7.1591008690
 12   7        19.9235748490       781.4651964136     33023.4240767696         6.3813706732         7.1591261648
 12   8        19.9233386319       781.4398437896     33021.7372918487         6.3813081373         7.1591008690
 12   9        19.7393117053       771.9118488590     32579.1306404930         6.3746235312         7.1563969459
 12  10        19.7388919945       771.8916792778     32578.0037056503         6.3746022176         7.1563883245
 12  11        19.7393117053       771.9118488590     32579.1306404928         6.3746235312         7.1563969459
 12  12        19.7388919945       771.8916792778     32578.0037056502         6.3746022176         7.1563883245
 13   1        20.1822915008       795.4844862128     33721.8922883294         6.3941574075         7.1642983988
 13   2        20.1819850777       795.4624825575     33720.1905788330         6.3941008087         7.1642755046
 13   3        20.1822915008       795.4844862128     33721.8922883282         6.3941574075         7.1642983988
 13   4        20.1819850777       795.4624825575     33720.1905788324         6.3941008087         7.1642755046
 13   5        20.3579505353       807.5027928303     34597.2156367671         6.4214124441         7.1753230611
 13   6        20.3577091663       807.4767806876     34595.4683850382         6.4213504440         7.1752979821
 13   7        20.3579505353       807.5027928303     34597.2156367666         6.4214124441         7.1753230611
 13   8        20.3577091663       807.4767806876     34595.4683850377         6.4213504440         7.1752979821
 13   9        20.1696717154       797.6579907544     34133.3806714249         6.4147003180         7.1726080061
 13  10        20.1692428384       797.6371912194     34132.2080280596         6.4146792502         7.1725994842
 13  11        20.1696717154       797.6579907544     34133.3806714248         6.4147003180         7.1726080061
 13  12        20.1692428384       797.6371912195     34132.2080280596         6.4146792502         7.1725994842
 13  13        20.6089763076       824.1384141041     35746.2157166954         6.4543593259         7.1886500748
 14   1        20.1823972206       795.4705210443     33720.3877427875         6.3940776292         7.1642661285
 14   2        20.1820907946       795.4485174960     33718.6860643039         6.3940210291         7.1642432338
 14   3        20.1823972206       795.4705210442     33720.3877427863         6.3940776292         7.1642661285
 14   4        20.1820907946       795.4485174960     33718.6860643033         6.3940210291         7.1642432338
 14   5        20.3580339394       807.4878111660     34595.6530137450         6.4213332766         7.1752910379
 14   6        20.3577925667       807.4617990267     34593.9057980509         6.4212712755         7.1752659584
 14   7        20.3580339394       807.4878111660     34595.6530137445         6.4213332766         7.1752910379
 14   8        20.3577925667       807.4617990266     34593.9057980504         6.4212712755         7.1752659584
 14   9        20.1697567709       797.6432337200     34131.8399963834         6.4146210866         7.1725759570
 14  10        20.1693278691       797.6224335731     34130.6673514141         6.4146000184         7.1725674349
 14  11        20.1697567709       797.6432337200     34131.8399963832         6.4146210866         7.1725759570
 14  12        20.1693278691       797.6224335731     34130.6673514140         6.4146000184         7.1725674349
 14  13        20.6090632500       824.1233754342     35744.6299379706         6.4542808556         7.1886183336
 14  14        20.6091502779       824.1083400282     35743.0443239815         6.4542023838         7.1885865917
 15   1        20.1822915008       795.4844862128     33721.8922883296         6.3941574075         7.1642983988
 15   2        20.1819850777       795.4624825575     33720.1905788332         6.3941008087         7.1642755046
 15   3        20.1822915008       795.4844862128     33721.8922883285         6.3941574075         7.1642983988
 15   4        20.1819850777       795.4624825575     33720.1905788326         6.3941008087         7.1642755046
 15   5        20.3579505353       807.5027928303     34597.2156367673         6.4214124441         7.1753230611
 15   6        20.3577091663       807.4767806876     34595.4683850385         6.4213504440         7.1752979821
 15   7        20.3579505353       807.5027928303     34597.2156367669         6.4214124441         7.1753230611
 15   8        20.3577091663       807.4767806876     34595.4683850379         6.4213504440         7.1752979821
 15   9        20.1696717154       797.6579907544     34133.3806714252         6.4147003180         7.1726080061
 15  10        20.1692428384       797.6371912195     34132.2080280599         6.4146792502         7.1725994842
 15  11        20.1696717154       797.6579907544     34133.3806714250         6.4147003180         7.1726080061
 15  12        20.1692428384       797.6371912195     34132.2080280598         6.4146792502         7.1725994842
 15  13        20.6089763076       824.1384141041     35746.2157166956         6.4543593259         7.1886500748
 15  14        20.6090632500       824.1233754342     35744.6299379709         6.4542808556         7.1886183336
 15  15        20.6089763076       824.1384141041     35746.2157166959         6.4543593259         7.1886500748
 16   1        20.1823972206       795.4705210443     33720.3877427881         6.3940776292         7.1642661285
 16   2        20.1820907946       795.4485174960     33718.6860643045         6.3940210291         7.1642432338
 16   3        20.1823972206       795.4705210442     33720.3877427870         6.3940776292         7.1642661285
 16   4        20.1820907946       795.4485174960     33718.6860643039         6.3940210291         7.1642432338
 16   5        20.3580339394       807.4878111660     34595.6530137456         6.4213332766         7.1752910379
 16   6        20.3577925667       807.4617990267     34593.9057980515         6.4212712755         7.1752659584
 16   7        20.3580339394       807.4878111660     34595.6530137451         6.4213332766         7.1752910379
 16   8        20.3577925667       807.4617990267     34593.9057980510         6.4212712755         7.1752659584
 16   9        20.1697567709       797.6432337200     34131.8399963840         6.4146210866         7.1725759570
 16  10        20.1693278691       797.6224335731     34130.6673514147         6.4146000184         7.1725674349
 16  11        20.1697567709       797.6432337200     34131.8399963839         6.4146210866         7.1725759570
 16  12        20.1693278691       797.6224335731     34130.6673514146         6.4146000184         7.1725674349
 16  13        20.6090632500       824.1233754342     35744.6299379713         6.4542808556         7.1886183336
 16  14        20.6091502779       824.1083400282     35743.0443239821         6.4542023838         7.1885865917
 16  15        20.6090632500       824.1233754342     35744.6299379715         6.4542808556         7.1886183336
 16  16        20.6091502779       824.1083400282     35743.0443239828         6.4542023838         7.1885865917
 17   1        20.1385014831       793.7421898579     33697.2349352869         6.3964897482         7.1652418306
 17   2        20.1381958077       793.7202374556     33695.5363350381         6.3964332077         7.1652189600
 17   3        20.1385014831       793.7421898579     33697.2349352858         6.3964897482         7.1652418306
 17   4        20.1381958077       793.7202374556     33695.5363350375         6.3964332077         7.1652189600
 17   5        20.3152115161       805.7910826819     34573.5108728525         6.4237166766         7.1762551231
 17   6        20.3149708200       805.7651319356     34571.7670168024         6.4236547451         7.1762300719
 17   7        20.3152115161       805.7910826819     34573.5108728521         6.4237166766         7.1762551231
 17   8        20.3149708200       805.7651319356     34571.7670168018         6.4236547451         7.1762300719
 17   9        20.1271786319       795.9611951681     34109.9476763226         6.4170126918         7.1735433613
 17  10        20.1267520760       795.9404958586     34108.7788807386         6.4169916456         7.1735348481
 17  11        20.1271786319       795.9611951681     34109.9476763224         6.4170126918         7.1735433613
 17  12        20.1267520760       795.9404958586     34108.7788807386         6.4169916456         7.1735348481
 17  13        20.5655555861       822.3853901890     35720.4232929462         6.4566297342         7.1895684550
 17  14        20.5656370961       822.3701732284     35718.8319751045         6.4565513464         7.1895367471
 17  15        20.5655555861       822.3853901890     35720.4232929465         6.4566297342         7.1895684550
 17  16        20.5656370961       822.3701732284     35718.8319751051         6.4565513464         7.1895367471
 17  17        20.5225499056       820.6490331401     35695.1436710302         6.4588983440         7.1904861076
 18   1        20.1380548040       793.7022670320     33694.6171490650         6.3964009993         7.1652059317
 18   2        20.1377491349       793.6803154419     33692.9186347938         6.3963444574         7.1651830605
 18   3        20.1380548040       793.7022670320     33694.6171490639         6.3964009993         7.1652059317
 18   4        20.1377491349       793.6803154419     33692.9186347932         6.3963444574         7.1651830605
 18   5        20.3147549602       805.7504604943     34570.8365837874         6.4236285649         7.1762194820
 18   6        20.3145142688       805.7245105706     34569.0928221640         6.4235666325         7.1761944303
 18   7        20.3147549602       805.7504604943     34570.8365837870         6.4236285649         7.1762194820
 18   8        20.3145142688       805.7245105706     34569.0928221634         6.4235666325         7.1761944303
 18   9        20.1267269230       795.9210268348     34107.3073249029         6.4169245345         7.1735077017
 18  10        20.1263003708       795.9003282294     34106.1385932149         6.4169034878         7.1734991883
 18  11        20.1267269230       795.9210268348     34107.3073249027         6.4169245345         7.1735077017
 18  12        20.1263003708       795.9003282294     34106.1385932148         6.4169034878         7.1734991883
 18  13        20.5650940476       822.3441433709     35717.6871794600         6.4565423429         7.1895331052
 18  14        20.5651755776       822.3289275347     35716.0959658066         6.4564639536         7.1895013967
 18  15        20.5650940476       822.3441433709     35717.6871794603         6.4565423429         7.1895331052
 18  16        20.5651755776       822.3289275347     35716.0959658073         6.4564639536         7.1895013967
 18  17        20.5220879863       820.6078191298     35692.4098636761         6.4588110468         7.1904507959
 18  18        20.5216260830       820.5666067829     35689.6762180866         6.4587237482         7.1904154836
 19   1        20.1385014831       793.7421898579     33697.2349352875         6.3964897482         7.1652418306
 19   2        20.1381958077       793.7202374557     33695.5363350386         6.3964332077         7.1652189600
 19   3        20.1385014831       793.7421898579     33697.2349352863         6.3964897482         7.1652418306
 19   4        20.1381958077       793.7202374557     33695.5363350381         6.3964332077         7.1652189600
 19   5        20.3152115161       805.7910826819     34573.5108728531         6.4237166766         7.1762551231
 19   6        20.3149708200       805.7651319356     34571.7670168030         6.4236547451         7.1762300719
 19   7        20.3152115161       805.7910826819     34573.5108728526         6.4237166766         7.1762551231
[...]
            =  -5.194682236085E-04   2.441845606088E-05   1.133235596921E-04  Ry/bohr
  Fvdw (86) =   2.596047304538E-04   1.203360737172E-05  -5.662038360313E-05  Hartree/bohr
            =   5.192094609075E-04   2.406721474343E-05  -1.132407672063E-04  Ry/bohr
  Fvdw (87) =   2.597341118043E-04  -1.220922803044E-05  -5.666177984603E-05  Hartree/bohr
            =   5.194682236085E-04  -2.441845606088E-05  -1.133235596921E-04  Ry/bohr
  Fvdw (88) =  -2.596047304538E-04  -1.203360737171E-05   5.662038360312E-05  Hartree/bohr
            =  -5.192094609075E-04  -2.406721474343E-05   1.132407672062E-04  Ry/bohr
  Fvdw (89) =  -1.100098823396E-03   4.795225602604E-04   1.721918245147E-04  Hartree/bohr
            =  -2.200197646793E-03   9.590451205208E-04   3.443836490295E-04  Ry/bohr
  Fvdw (90) =   1.100643783085E-03   4.792212972832E-04  -1.721942193294E-04  Hartree/bohr
            =   2.201287566169E-03   9.584425945665E-04  -3.443884386589E-04  Ry/bohr
  Fvdw (91) =   1.100098823396E-03  -4.795225602604E-04  -1.721918245147E-04  Hartree/bohr
            =   2.200197646793E-03  -9.590451205208E-04  -3.443836490295E-04  Ry/bohr
  Fvdw (92) =  -1.100643783085E-03  -4.792212972832E-04   1.721942193295E-04  Hartree/bohr
            =  -2.201287566169E-03  -9.584425945665E-04   3.443884386589E-04  Ry/bohr
  sigma_vdw (Hy/bohr**3) =  -1.005429293175E-05   1.850096612192E-10   4.095524973848E-07  
                             1.850096612192E-10  -1.635250914912E-05  -1.013881248777E-10  
                             4.095524973848E-07  -1.013881248777E-10  -1.916556942408E-05  
  sigma_vdw (Ry/bohr**3) =  -2.010858586349E-05   3.700193224384E-10   8.191049947696E-07  
                             3.700193224384E-10  -3.270501829824E-05  -2.027762497555E-10  
                             8.191049947696E-07  -2.027762497555E-10  -3.833113884815E-05  
  sigma_vdw (GPa) =  -2.958074609687E-01   5.443171241523E-06   1.204944845025E-02  
                      5.443171241523E-06  -4.811073483442E-01  -2.982941117397E-06  
                      1.204944845025E-02  -2.982941117397E-06  -5.638704250852E-01  
 
 TIME (final):      790.5

!    total energy              =   -2612.23465250 Ry
     Harris-Foulkes estimate   =   -2612.23465257 Ry
     estimated scf accuracy    <       0.00000010 Ry

     total all-electron energy =    -43081.063964 Ry

     The total energy is the sum of the following terms:

     one-electron contribution =   -1935.80126104 Ry
     hartree contribution      =    1045.91707611 Ry
     xc contribution           =    -323.80682548 Ry
     ewald contribution        =     379.59851285 Ry
     Dispersion XDM Correction =      -0.49474153 Ry
     Uncorrected (XDM) energy  =   -2611.73991097 Ry
     one-center paw contrib.   =   -1777.64741341 Ry

     convergence has been achieved in 120 iterations

     Forces acting on atoms (Ry/au):

     atom    1 type  1   force =    -0.00052335   -0.00006545   -0.00018945
     atom    2 type  1   force =     0.00047201    0.00012163    0.00040291
     atom    3 type  1   force =     0.00052335    0.00006545    0.00018945
     atom    4 type  1   force =    -0.00047201   -0.00012163   -0.00040291
     atom    5 type  1   force =     0.00024010    0.00020926    0.00026012
     atom    6 type  1   force =    -0.00025509    0.00005005   -0.00055973
     atom    7 type  1   force =    -0.00024010   -0.00020926   -0.00026012
     atom    8 type  1   force =     0.00025509   -0.00005005    0.00055973
     atom    9 type  1   force =    -0.00046730   -0.00048740   -0.00004096
     atom   10 type  1   force =     0.00020568   -0.00055742   -0.00013622
     atom   11 type  1   force =     0.00046730    0.00048740    0.00004096
     atom   12 type  1   force =    -0.00020568    0.00055742    0.00013622
     atom   13 type  1   force =     0.00045389    0.00013810   -0.00000261
     atom   14 type  1   force =    -0.00009869   -0.00035754    0.00040100
     atom   15 type  1   force =    -0.00045389   -0.00013810    0.00000261
     atom   16 type  1   force =     0.00009869    0.00035754   -0.00040100
     atom   17 type  1   force =    -0.00014465   -0.00006543    0.00021149
     atom   18 type  1   force =    -0.00020682    0.00025947   -0.00071401
     atom   19 type  1   force =     0.00014465    0.00006543   -0.00021149
     atom   20 type  1   force =     0.00020682   -0.00025947    0.00071401
     atom   21 type  1   force =     0.00033032    0.00023511    0.00050623
     atom   22 type  1   force =    -0.00004680    0.00032034   -0.00028181
     atom   23 type  1   force =    -0.00033032   -0.00023511   -0.00050623
     atom   24 type  1   force =     0.00004680   -0.00032034    0.00028181
     atom   25 type  1   force =     0.00033761   -0.00003778   -0.00003924
     atom   26 type  1   force =    -0.00054122    0.00037178   -0.00016619
     atom   27 type  1   force =    -0.00033761    0.00003778    0.00003924
     atom   28 type  1   force =     0.00054122   -0.00037178    0.00016619
     atom   29 type  1   force =    -0.00005802   -0.00030586    0.00019497
     atom   30 type  1   force =     0.00018712   -0.00017138   -0.00000033
     atom   31 type  1   force =     0.00005802    0.00030586   -0.00019497
     atom   32 type  1   force =    -0.00018712    0.00017138    0.00000033
     atom   33 type  1   force =     0.00004012    0.00001958    0.00034887
     atom   34 type  1   force =     0.00007292    0.00004859   -0.00017076
     atom   35 type  1   force =    -0.00004012   -0.00001958   -0.00034887
     atom   36 type  1   force =    -0.00007292   -0.00004859    0.00017076
     atom   37 type  1   force =     0.00024937   -0.00037321    0.00020952
     atom   38 type  1   force =    -0.00033861   -0.00049526   -0.00041844
     atom   39 type  1   force =    -0.00024937    0.00037321   -0.00020952
     atom   40 type  1   force =     0.00033861    0.00049526    0.00041844
     atom   41 type  1   force =     0.00011604    0.00013042    0.00015005
     atom   42 type  1   force =     0.00004867   -0.00031474   -0.00001074
     atom   43 type  1   force =    -0.00011604   -0.00013042   -0.00015005
     atom   44 type  1   force =    -0.00004867    0.00031474    0.00001074
     atom   45 type  1   force =     0.00031014   -0.00005809    0.00002238
     atom   46 type  1   force =    -0.00053837   -0.00000377   -0.00031164
     atom   47 type  1   force =    -0.00031014    0.00005809   -0.00002238
     atom   48 type  1   force =     0.00053837    0.00000377    0.00031164
     atom   49 type  4   force =    -0.00066045    0.00028079    0.00013839
     atom   50 type  4   force =     0.00062298    0.00032903   -0.00016599
     atom   51 type  4   force =     0.00066045   -0.00028079   -0.00013839
     atom   52 type  4   force =    -0.00062298   -0.00032903    0.00016599
     atom   53 type  4   force =     0.00005926    0.00017977    0.00031861
     atom   54 type  4   force =    -0.00007666    0.00019016   -0.00032886
     atom   55 type  4   force =    -0.00005926   -0.00017977   -0.00031861
     atom   56 type  4   force =     0.00007666   -0.00019016    0.00032886
     atom   57 type  2   force =    -0.00079874    0.00002467   -0.00022365
     atom   58 type  2   force =     0.00082668    0.00001283    0.00025821
     atom   59 type  2   force =     0.00079874   -0.00002467    0.00022365
     atom   60 type  2   force =    -0.00082668   -0.00001283   -0.00025821
     atom   61 type  2   force =    -0.00021165    0.00062603    0.00036026
     atom   62 type  2   force =     0.00024256    0.00069580   -0.00021467
     atom   63 type  2   force =     0.00021165   -0.00062603   -0.00036026
     atom   64 type  2   force =    -0.00024256   -0.00069580    0.00021467
     atom   65 type  2   force =     0.00060707   -0.00000379    0.00007476
     atom   66 type  2   force =    -0.00061794    0.00020703   -0.00004885
     atom   67 type  2   force =    -0.00060707    0.00000379   -0.00007476
     atom   68 type  2   force =     0.00061794   -0.00020703    0.00004885
     atom   69 type  2   force =    -0.00041809   -0.00013443    0.00015308
     atom   70 type  2   force =     0.00045705   -0.00015686   -0.00018189
     atom   71 type  2   force =     0.00041809    0.00013443   -0.00015308
     atom   72 type  2   force =    -0.00045705    0.00015686    0.00018189
     atom   73 type  2   force =    -0.00082714   -0.00010869    0.00027028
     atom   74 type  2   force =     0.00092394   -0.00004349   -0.00010780
     atom   75 type  2   force =     0.00082714    0.00010869   -0.00027028
     atom   76 type  2   force =    -0.00092394    0.00004349    0.00010780
     atom   77 type  2   force =     0.00039499   -0.00030089    0.00006048
     atom   78 type  2   force =    -0.00032329   -0.00042331    0.00005298
     atom   79 type  2   force =    -0.00039499    0.00030089   -0.00006048
     atom   80 type  2   force =     0.00032329    0.00042331   -0.00005298
     atom   81 type  2   force =     0.00042978   -0.00007892    0.00004606
     atom   82 type  2   force =    -0.00048015   -0.00014325   -0.00015505
     atom   83 type  2   force =    -0.00042978    0.00007892   -0.00004606
     atom   84 type  2   force =     0.00048015    0.00014325    0.00015505
     atom   85 type  2   force =    -0.00011908   -0.00016526   -0.00000753
     atom   86 type  2   force =     0.00010489   -0.00019105    0.00001073
     atom   87 type  2   force =     0.00011908    0.00016526    0.00000753
     atom   88 type  2   force =    -0.00010489    0.00019105   -0.00001073
     atom   89 type  3   force =     0.00006110    0.00013523    0.00060173
     atom   90 type  3   force =    -0.00009664    0.00016898   -0.00058497
     atom   91 type  3   force =    -0.00006110   -0.00013523   -0.00060173
     atom   92 type  3   force =     0.00009664   -0.00016898    0.00058497

     Total force =     0.005475     Total SCF correction =     0.000643

     Total XDM Dispersion Force =     0.010372

     XDM Dispersion forces acting on atoms:
     atom    1 type  1   force =     0.00127961   -0.00017615   -0.00021098
     atom    2 type  1   force =    -0.00128005   -0.00017671    0.00021092
     atom    3 type  1   force =    -0.00127961    0.00017615    0.00021098
     atom    4 type  1   force =     0.00128005    0.00017671   -0.00021092
     atom    5 type  1   force =     0.00142641   -0.00046863   -0.00034868
     atom    6 type  1   force =    -0.00142666   -0.00046930    0.00034863
     atom    7 type  1   force =    -0.00142641    0.00046863    0.00034868
     atom    8 type  1   force =     0.00142666    0.00046930   -0.00034863
     atom    9 type  1   force =     0.00139702   -0.00000203    0.00030567
     atom   10 type  1   force =    -0.00139777   -0.00000258   -0.00030576
     atom   11 type  1   force =    -0.00139702    0.00000203   -0.00030567
     atom   12 type  1   force =     0.00139777    0.00000258    0.00030576
     atom   13 type  1   force =     0.00004677    0.00076308   -0.00021778
     atom   14 type  1   force =    -0.00004754    0.00076150    0.00021810
     atom   15 type  1   force =    -0.00004677   -0.00076308    0.00021778
     atom   16 type  1   force =     0.00004754   -0.00076150   -0.00021810
     atom   17 type  1   force =     0.00042872   -0.00022933   -0.00040973
     atom   18 type  1   force =    -0.00042858   -0.00023139    0.00040951
     atom   19 type  1   force =    -0.00042872    0.00022933    0.00040973
     atom   20 type  1   force =     0.00042858    0.00023139   -0.00040951
     atom   21 type  1   force =     0.00084787   -0.00030638   -0.00008532
     atom   22 type  1   force =    -0.00084758   -0.00030683    0.00008538
     atom   23 type  1   force =    -0.00084787    0.00030638    0.00008532
     atom   24 type  1   force =     0.00084758    0.00030683   -0.00008538
     atom   25 type  1   force =    -0.00061553    0.00009190    0.00041462
     atom   26 type  1   force =     0.00061463    0.00009065   -0.00041473
     atom   27 type  1   force =     0.00061553   -0.00009190   -0.00041462
     atom   28 type  1   force =    -0.00061463   -0.00009065    0.00041473
     atom   29 type  1   force =     0.00078045    0.00013573    0.00030977
     atom   30 type  1   force =    -0.00078089    0.00013507   -0.00030963
     atom   31 type  1   force =    -0.00078045   -0.00013573   -0.00030977
     atom   32 type  1   force =     0.00078089   -0.00013507    0.00030963
     atom   33 type  1   force =     0.00001476   -0.00061307   -0.00008413
     atom   34 type  1   force =    -0.00001420   -0.00061340    0.00008415
     atom   35 type  1   force =    -0.00001476    0.00061307    0.00008413
     atom   36 type  1   force =     0.00001420    0.00061340   -0.00008415
     atom   37 type  1   force =     0.00033257    0.00009896    0.00002894
     atom   38 type  1   force =    -0.00033253    0.00009813   -0.00002880
     atom   39 type  1   force =    -0.00033257   -0.00009896   -0.00002894
     atom   40 type  1   force =     0.00033253   -0.00009813    0.00002880
     atom   41 type  1   force =    -0.00105748   -0.00038600    0.00032171
     atom   42 type  1   force =     0.00105698   -0.00038696   -0.00032167
     atom   43 type  1   force =     0.00105748    0.00038600   -0.00032171
     atom   44 type  1   force =    -0.00105698    0.00038696    0.00032167
     atom   45 type  1   force =    -0.00072809   -0.00036002    0.00004982
     atom   46 type  1   force =     0.00072814   -0.00036045   -0.00004983
     atom   47 type  1   force =     0.00072809    0.00036002   -0.00004982
     atom   48 type  1   force =    -0.00072814    0.00036045    0.00004983
     atom   49 type  4   force =     0.00073274   -0.00080867   -0.00066236
     atom   50 type  4   force =    -0.00073077   -0.00080875    0.00066175
     atom   51 type  4   force =    -0.00073274    0.00080867    0.00066236
     atom   52 type  4   force =     0.00073077    0.00080875   -0.00066175
     atom   53 type  4   force =    -0.00232145    0.00086893   -0.00025355
     atom   54 type  4   force =     0.00232213    0.00086763    0.00025375
     atom   55 type  4   force =     0.00232145   -0.00086893    0.00025355
     atom   56 type  4   force =    -0.00232213   -0.00086763   -0.00025375
     atom   57 type  2   force =     0.00037868   -0.00002034   -0.00002987
     atom   58 type  2   force =    -0.00037877   -0.00002049    0.00002984
     atom   59 type  2   force =    -0.00037868    0.00002034    0.00002987
     atom   60 type  2   force =     0.00037877    0.00002049   -0.00002984
     atom   61 type  2   force =     0.00047458   -0.00024696   -0.00008744
     atom   62 type  2   force =    -0.00047460   -0.00024717    0.00008738
     atom   63 type  2   force =    -0.00047458    0.00024696    0.00008744
     atom   64 type  2   force =     0.00047460    0.00024717   -0.00008738
     atom   65 type  2   force =     0.00002796    0.00033184    0.00004757
     atom   66 type  2   force =    -0.00002852    0.00033202   -0.00004732
     atom   67 type  2   force =    -0.00002796   -0.00033184   -0.00004757
     atom   68 type  2   force =     0.00002852   -0.00033202    0.00004732
     atom   69 type  2   force =     0.00048144    0.00008204    0.00008865
     atom   70 type  2   force =    -0.00048167    0.00008197   -0.00008868
     atom   71 type  2   force =    -0.00048144   -0.00008204   -0.00008865
     atom   72 type  2   force =     0.00048167   -0.00008197    0.00008868
     atom   73 type  2   force =     0.00035235    0.00003869   -0.00011409
     atom   74 type  2   force =    -0.00035218    0.00003796    0.00011395
     atom   75 type  2   force =    -0.00035235   -0.00003869    0.00011409
     atom   76 type  2   force =     0.00035218   -0.00003796   -0.00011395
     atom   77 type  2   force =    -0.00033052    0.00009756    0.00008286
     atom   78 type  2   force =     0.00033005    0.00009727   -0.00008292
     atom   79 type  2   force =     0.00033052   -0.00009756   -0.00008286
     atom   80 type  2   force =    -0.00033005   -0.00009727    0.00008292
     atom   81 type  2   force =     0.00001174    0.00012267    0.00006022
     atom   82 type  2   force =    -0.00001200    0.00012256   -0.00006000
     atom   83 type  2   force =    -0.00001174   -0.00012267   -0.00006022
     atom   84 type  2   force =     0.00001200   -0.00012256    0.00006000
     atom   85 type  2   force =    -0.00051947    0.00002442    0.00011332
     atom   86 type  2   force =     0.00051921    0.00002407   -0.00011324
     atom   87 type  2   force =     0.00051947   -0.00002442   -0.00011332
     atom   88 type  2   force =    -0.00051921   -0.00002407    0.00011324
     atom   89 type  3   force =    -0.00220020    0.00095905    0.00034438
     atom   90 type  3   force =     0.00220129    0.00095844   -0.00034439
     atom   91 type  3   force =     0.00220020   -0.00095905   -0.00034438
     atom   92 type  3   force =    -0.00220129   -0.00095844    0.00034439
     SCF correction compared to forces is large: reduce conv_thr to get better values


     entering subroutine stress ...

          total   stress  (Ry/bohr**3)                   (kbar)     P=    0.05
  -0.00000098   0.00000020  -0.00000032         -0.14      0.03     -0.05
   0.00000020   0.00000074   0.00000024          0.03      0.11      0.04
  -0.00000032   0.00000024   0.00000120         -0.05      0.04      0.18


     Writing output data file fepxas.save
 
     init_run     :    106.06s CPU    111.87s WALL (       2 calls)
     electrons    :  11553.06s CPU  11974.70s WALL (       2 calls)
     forces       :    100.33s CPU    100.74s WALL (       2 calls)
     stress       :    250.49s CPU    252.55s WALL (       2 calls)

     Called by init_run:
     wfcinit      :     25.33s CPU     25.88s WALL (       2 calls)
     potinit      :     28.63s CPU     29.51s WALL (       2 calls)

     Called by electrons:
     c_bands      :   4673.62s CPU   4843.48s WALL (     211 calls)
     sum_band     :   3507.62s CPU   3662.16s WALL (     211 calls)
     v_of_rho     :    281.57s CPU    285.20s WALL (     213 calls)
     newd         :   2006.61s CPU   2046.73s WALL (     213 calls)
     mix_rho      :    151.30s CPU    160.81s WALL (     211 calls)

     Called by c_bands:
     init_us_2    :     27.59s CPU     27.67s WALL (     424 calls)
     cegterg      :   4611.15s CPU   4781.01s WALL (     211 calls)

     Called by *egterg:
     h_psi        :   3222.48s CPU   3348.04s WALL (    1268 calls)
     s_psi        :    388.94s CPU    388.98s WALL (    1268 calls)
     g_psi        :     14.55s CPU     14.56s WALL (    1055 calls)
     cdiaghg      :    161.35s CPU    161.66s WALL (    1266 calls)

     Called by h_psi:
     add_vuspsi   :    391.59s CPU    391.68s WALL (    1268 calls)

     General routines
     calbec       :    517.92s CPU    525.70s WALL (    1483 calls)
     fft          :    232.03s CPU    279.76s WALL (    6227 calls)
     ffts         :     15.93s CPU     16.51s WALL (     848 calls)
     fftw         :   3625.63s CPU   3859.25s WALL (  295984 calls)
     interpolate  :     53.29s CPU     54.53s WALL (     848 calls)
     davcio       :      0.00s CPU     17.32s WALL (     211 calls)
 
     Parallel routines
     fft_scatter  :    691.55s CPU    970.67s WALL (  303059 calls)
 
     PAW routines
     PAW_pot      :     92.92s CPU    108.81s WALL (     213 calls)
     PAW_ddot     :     71.02s CPU     78.75s WALL (    8927 calls)
     PAW_symme    :      0.05s CPU      0.09s WALL (     424 calls)
 
     PWSCF        :     3h20m CPU        3h27m WALL

 
   This run was terminated on:   4: 5:54  27Oct2012            

=------------------------------------------------------------------------------=
   JOB DONE.
=------------------------------------------------------------------------------=
