
     Program PWSCF v.4.3.2      starts on 16Oct2012 at 19:36:56 

     This program is part of the open-source Quantum ESPRESSO suite
     for quantum simulation of materials; please cite
         "P. Giannozzi et al., J. Phys.:Condens. Matter 21 395502 (2009);
          URL http://www.quantum-espresso.org", 
     in publications or presentations arising from this work. More details at
     http://www.quantum-espresso.org/wiki/index.php/Citing_Quantum-ESPRESSO

     Parallel version (MPI), running on    12 processors
     R & G space division:  proc/pool =   12

     Current dimensions of program PWSCF are:
     Max number of different atomic species (ntypx) = 10
     Max number of k-points (npk) =  40000
     Max angular momentum in pseudopotentials (lmaxx) =  3
     Waiting for input...
     Reading input from stdin
               file c.UPF: wavefunction(s)  2P renormalized
               file f.UPF: wavefunction(s)  2S 2P renormalized
               file s.UPF: wavefunction(s)  3P renormalized

     Subspace diagonalization in iterative solution of the eigenvalue problem:
     a serial algorithm will be used

 
     Parallelization info
     --------------------
     sticks:   dense  smooth     PW     G-vecs:    dense   smooth      PW
     Min        3060    2040    535               147222    80133   10756
     Max        3061    2041    536               147223    80149   10757
     Sum       36729   24483   6421              1766675   961703  129079
 

     Title: 
     fepxas                                                                     


     bravais-lattice index     =            0
     lattice parameter (alat)  =       1.0000  a.u.
     unit-cell volume          =   15315.7800 (a.u.)^3
     number of atoms/cell      =           92
     number of atomic types    =            4
     number of electrons       =       480.00
     number of Kohn-Sham states=          240
     kinetic-energy cutoff     =      60.0000  Ry
     charge density cutoff     =     360.0000  Ry
     convergence threshold     =      1.0E-07
     mixing beta               =       0.7000
     number of iterations used =            8  plain     mixing
     Exchange-correlation      =  NOX  PW   PW86 PBC ( 0 417 4 0)
     EXX-fraction              =        0.00
     nstep                     =           50


     celldm(1)=   1.000000  celldm(2)=   0.000000  celldm(3)=   0.000000
     celldm(4)=   0.000000  celldm(5)=   0.000000  celldm(6)=   0.000000

     crystal axes: (cart. coord. in units of alat)
               a(1) = (  40.673430   0.019027   2.134790 )  
               a(2) = (   0.012167  31.482923   0.056793 )  
               a(3) = (   0.332680   0.015894  11.978100 )  

     reciprocal axes: (cart. coord. in units 2 pi/alat)
               b(1) = (  0.024622 -0.000008 -0.000684 )  
               b(2) = ( -0.000013  0.031763 -0.000042 )  
               b(3) = ( -0.004388 -0.000149  0.083608 )  


     PseudoPot. # 1 for  C read from file:
     ./c.UPF
     MD5 check sum: 59d3a4af416b94ce846c69cefa103580
     Pseudo is Projector augmented-wave + core cor, Zval =  4.0
     Generated using "atomic" code by A. Dal Corso  (Quantum ESPRESSO distribution)
     Shape of augmentation charge: BESSEL
     Using radial grid of 1073 points,  4 beta functions with: 
                l(1) =   0
                l(2) =   0
                l(3) =   1
                l(4) =   1
     Q(r) pseudized with 0 coefficients 


     PseudoPot. # 2 for  F read from file:
     ./f.UPF
     MD5 check sum: 8cc698429acbef515959d6d1ea0e1135
     Pseudo is Projector augmented-wave + core cor, Zval =  7.0
     Generated using "atomic" code by A. Dal Corso  (Quantum ESPRESSO distribution)
     Shape of augmentation charge: PSQ
     Using radial grid of 1105 points,  4 beta functions with: 
                l(1) =   0
                l(2) =   0
                l(3) =   1
                l(4) =   1
     Q(r) pseudized with 0 coefficients 


     PseudoPot. # 3 for  S read from file:
     ./s.UPF
     MD5 check sum: f30e8e98a43cb1acb672e04b450f70db
     Pseudo is Projector augmented-wave + core cor, Zval =  6.0
     Generated using "atomic" code by A. Dal Corso  (Quantum ESPRESSO distribution)
     Shape of augmentation charge: PSQ
     Using radial grid of 1151 points,  4 beta functions with: 
                l(1) =   0
                l(2) =   0
                l(3) =   1
                l(4) =   1
     Q(r) pseudized with 0 coefficients 


     PseudoPot. # 4 for As read from file:
     ./as.UPF
     MD5 check sum: c4211a47c95e243bf5c6b176bad74a68
     Pseudo is Projector augmented-wave + core cor, Zval =  5.0
     Generated using "atomic" code by A. Dal Corso  (Quantum ESPRESSO distribution)
     Shape of augmentation charge: PSQ
     Using radial grid of 1209 points,  4 beta functions with: 
                l(1) =   0
                l(2) =   0
                l(3) =   1
                l(4) =   1
     Q(r) pseudized with 0 coefficients 


     atomic species   valence    mass     pseudopotential
        c              4.00    12.01070      C( 1.00)
        f              7.00    18.99840      F( 1.00)
        s              6.00    32.06500      S( 1.00)
        as             5.00    74.92160     As( 1.00)

      2 Sym.Ops. (with inversion)


   Cartesian axes

     site n.     atom                  positions (alat units)
         1           c   tau(   1) = (  24.4454831  26.5613418  11.1094763  )
         2           c   tau(   2) = (  37.0736518  10.8531641  10.1253229  )
         3           c   tau(   3) = (  16.5727939   4.9565019   3.0602074  )
         4           c   tau(   4) = (   3.9446251  20.6646796   4.0443608  )
         5           c   tau(   5) = (  25.6313365  28.0698759   9.2930107  )
         6           c   tau(   6) = (  35.8917576  12.3431259  11.9682124  )
         7           c   tau(   7) = (  15.3869404   3.4479678   4.8766730  )
         8           c   tau(   8) = (   5.1265194  19.1747178   2.2014712  )
         9           c   tau(   9) = (  25.9314879  25.1952539  12.8530348  )
        10           c   tau(  10) = (  35.5926469   9.4934227   8.3610121  )
        11           c   tau(  11) = (  15.0867890   6.3225897   1.3166489  )
        12           c   tau(  12) = (   5.4256300  22.0244210   5.8086715  )
        13           c   tau(  13) = (  32.0132411   4.0142867  12.4768243  )
        14           c   tau(  14) = (  29.5067361  19.7626287   8.7280745  )
        15           c   tau(  15) = (   9.0050359  27.5035570   1.6928594  )
        16           c   tau(  16) = (  11.5115409  11.7552150   5.4416091  )
        17           c   tau(  17) = (  30.8361495   2.8170119  10.4241468  )
        18           c   tau(  18) = (  30.6731025  18.5474812  10.7741758  )
        19           c   tau(  19) = (  10.1821274  28.7008318   3.7455368  )
        20           c   tau(  20) = (  10.3451744  12.9703625   3.3955079  )
        21           c   tau(  21) = (  28.2332572  28.0622508   9.2360020  )
        22           c   tau(  22) = (  33.2918951  12.3160839  12.0178393  )
        23           c   tau(  23) = (  12.7850197   3.4555929   4.9336817  )
        24           c   tau(  24) = (   7.7263819  19.2017597   2.1518444  )
        25           c   tau(  25) = (  34.0124221   2.8296109  13.6740322  )
        26           c   tau(  26) = (  27.5007372  18.6033903   7.5280129  )
        27           c   tau(  27) = (   7.0058549  28.6882328   0.4956514  )
        28           c   tau(  28) = (  13.5175397  12.9144534   6.6416707  )
        29           c   tau(  29) = (  28.5674165  25.1941529  12.7330989  )
        30           c   tau(  30) = (  32.9576561   9.4807731   8.4814085  )
        31           c   tau(  31) = (  12.4508604   6.3236907   1.4365848  )
        32           c   tau(  32) = (   8.0606208  22.0370706   5.6882751  )
        33           c   tau(  33) = (  31.6686991   0.4912013   9.5769791  )
        34           c   tau(  34) = (  29.8399006  16.2220119  11.6174838  )
        35           c   tau(  35) = (   9.3495779  31.0266424   4.5927046  )
        36           c   tau(  36) = (  11.1783764  15.2958318   2.5521999  )
        37           c   tau(  37) = (  29.7367766  26.6597164  10.9143606  )
        38           c   tau(  38) = (  31.7918799  10.9285104  10.3204824  )
        39           c   tau(  39) = (  11.2815004   4.8581273   3.2553231  )
        40           c   tau(  40) = (   9.2263971  20.5893333   3.8492012  )
        41           c   tau(  41) = (  34.7686631   0.4382457  12.8447509  )
        42           c   tau(  42) = (  26.7533242  16.1988797   8.3287316  )
        43           c   tau(  43) = (   6.2496139  31.0795980   1.3249328  )
        44           c   tau(  44) = (  14.2649527  15.3189640   5.8409521  )
        45           c   tau(  45) = (  33.5340771  30.6770450  10.9654232  )
        46           c   tau(  46) = (  27.9886497  14.9396245  10.2684275  )
        47           c   tau(  47) = (   7.4841999   0.8407987   3.2042605  )
        48           c   tau(  48) = (  13.0296273  16.5782191   3.9012562  )
        49           as  tau(  49) = (  30.0209490  30.2726496   6.7332903  )
        50           as  tau(  50) = (  31.1665187  14.4847374   2.5444068  )
        51           as  tau(  51) = (  10.9973280   1.2451941   7.4363934  )
        52           as  tau(  52) = (   9.8517582  17.0331063  11.6252769  )
        53           as  tau(  53) = (  33.5977878  26.8967054  10.5305836  )
        54           as  tau(  54) = (  27.9283568  11.1577555  10.7034892  )
        55           as  tau(  55) = (   7.4204892   4.6211383   3.6391000  )
        56           as  tau(  56) = (  13.0899202  20.3600882   3.4661944  )
        57           f   tau(  57) = (  21.9123111  26.3719717  11.1853068  )
        58           f   tau(  58) = (  39.6037055  10.6922272  10.0448943  )
        59           f   tau(  59) = (  19.1059658   5.1458720   2.9843768  )
        60           f   tau(  60) = (   1.4145714  20.8256165   4.1247894  )
        61           f   tau(  61) = (  24.2743442  29.4740738   7.5648499  )
        62           f   tau(  62) = (  37.2483877  13.7460596  13.6983368  )
        63           f   tau(  63) = (  16.7439328   2.0437699   6.6048337  )
        64           f   tau(  64) = (   3.7698892  17.7717841   0.4713469  )
        65           f   tau(  65) = (  31.4088882   6.3775040  13.1947814  )
        66           f   tau(  66) = (  30.1195155  22.1255574   8.0356223  )
        67           f   tau(  67) = (   9.6093888  25.1403397   0.9749022  )
        68           f   tau(  68) = (  10.8987614   9.3922863   6.1340614  )
        69           f   tau(  69) = (  24.4318039  23.7413957   2.6190666  )
        70           f   tau(  70) = (  36.7505519   8.0384427   6.6252119  )
        71           f   tau(  71) = (  16.5864730   7.7764480  11.5506170  )
        72           f   tau(  72) = (   4.2677251  23.4794010   7.5444717  )
        73           f   tau(  73) = (  28.7800422   3.9221495   9.3492523  )
        74           f   tau(  74) = (  32.7324086  19.6563806  11.8478619  )
        75           f   tau(  75) = (  12.2382348  27.5956942   4.8204313  )
        76           f   tau(  76) = (   8.2858683  11.8614631   2.3218218  )
        77           f   tau(  77) = (  35.0446126   4.0497729   3.4510338  )
        78           f   tau(  78) = (  26.1592761  19.8755530   5.7834926  )
        79           f   tau(  79) = (   5.9736643  27.4680708  10.7186498  )
        80           f   tau(  80) = (  14.8590009  11.6422907   8.3861911  )
        81           f   tau(  81) = (  29.5028910  23.4857018   2.2353689  )
        82           f   tau(  82) = (  31.6825133   7.7900893   7.0022157  )
        83           f   tau(  83) = (  11.5153859   8.0321418  11.9343148  )
        84           f   tau(  84) = (   9.3357636  23.7277544   7.1674679  )
        85           f   tau(  85) = (  36.5176062  30.8989877   2.0189019  )
        86           f   tau(  86) = (  24.7053288  15.1833671   7.2080337  )
        87           f   tau(  87) = (   4.5006707   0.6188560  12.1507818  )
        88           f   tau(  88) = (  16.3129482  16.3344766   6.9616500  )
        89           s   tau(  89) = (  33.1473419  27.3929437   6.3076889  )
        90           s   tau(  90) = (  28.0271397  11.6139706   2.9547856  )
        91           s   tau(  91) = (   7.8709350   4.1249000   7.8619947  )
        92           s   tau(  92) = (  12.9911372  19.9038731  11.2148981  )

     number of k points=     1
                       cart. coord. in units 2pi/alat
        k(    1) = (  -0.0134017  -0.0159148   0.0212648), wk =   2.0000000

     Dense  grid:  1766675 G-vectors     FFT dimensions: ( 250, 192,  75)

     Smooth grid:   961703 G-vectors     FFT dimensions: ( 216, 160,  60)

     Largest allocated arrays     est. size (Mb)     dimensions
        Kohn-Sham Wavefunctions        36.81 Mb     (  10051,  240)
        NL pseudopotentials           112.88 Mb     (  10051,  736)
        Each V/rho on FFT grid          5.13 Mb     ( 336000)
        Each G-vector array             1.12 Mb     ( 147223)
        G-vector shells                 1.12 Mb     ( 147223)
     Largest temporary arrays     est. size (Mb)     dimensions
        Auxiliary wavefunctions       147.23 Mb     (  10051,  960)
        Each subspace H/S matrix       14.06 Mb     ( 960, 960)
        Each <psi_i|beta_j> matrix      2.70 Mb     (    736,  240)
        Arrays for rho mixing          41.02 Mb     ( 336000,   8)

     Check: negative/imaginary core charge=   -0.000025    0.000000

     Initial potential from superposition of free atoms

     starting charge  479.99606, renormalised to  480.00000
     Starting wfc are  368 atomic wfcs
     Checking if some PAW data can be deallocated... 

     total cpu time spent up to now is       75.3 secs

     per-process dynamical memory:   335.7 Mb

     Self-consistent Calculation

     iteration #  1     ecut=    60.00 Ry     beta=0.70
     Davidson diagonalization with overlap
     ethr =  1.00E-02,  avg # of iterations =  3.0

     total cpu time spent up to now is      174.9 secs

     total energy              =   -4477.98463421 Ry
     Harris-Foulkes estimate   =   -4484.07891089 Ry
     estimated scf accuracy    <    3268.10619749 Ry

     iteration #  2     ecut=    60.00 Ry     beta=0.70
     Davidson diagonalization with overlap
     ethr =  1.00E-02,  avg # of iterations =  1.0

     negative rho (up, down):  0.244E-06 0.000E+00

     total cpu time spent up to now is      259.6 secs

     total energy              =   -4478.79625063 Ry
     Harris-Foulkes estimate   =   -4479.06555909 Ry
     estimated scf accuracy    <     317.65275987 Ry

     iteration #  3     ecut=    60.00 Ry     beta=0.70
     Davidson diagonalization with overlap
     ethr =  1.00E-02,  avg # of iterations =  5.0

     negative rho (up, down):  0.400E-06 0.000E+00

     total cpu time spent up to now is      348.8 secs

     total energy              =   -4484.49213910 Ry
     Harris-Foulkes estimate   =   -4484.39435707 Ry
     estimated scf accuracy    <      17.23925904 Ry

     iteration #  4     ecut=    60.00 Ry     beta=0.70
     Davidson diagonalization with overlap
     ethr =  3.59E-03,  avg # of iterations =  1.0

     negative rho (up, down):  0.630E-05 0.000E+00

     total cpu time spent up to now is      427.7 secs

     total energy              =   -4484.66051344 Ry
     Harris-Foulkes estimate   =   -4484.69497185 Ry
     estimated scf accuracy    <      17.98174801 Ry

     iteration #  5     ecut=    60.00 Ry     beta=0.70
     Davidson diagonalization with overlap
     ethr =  3.59E-03,  avg # of iterations =  1.0

     negative rho (up, down):  0.133E-01 0.000E+00

     total cpu time spent up to now is      506.8 secs

     total energy              =   -4484.06808576 Ry
     Harris-Foulkes estimate   =   -4484.88162592 Ry
     estimated scf accuracy    <      18.28143418 Ry

     iteration #  6     ecut=    60.00 Ry     beta=0.70
     Davidson diagonalization with overlap
     ethr =  3.59E-03,  avg # of iterations =  1.0

     negative rho (up, down):  0.148E+00 0.000E+00

     total cpu time spent up to now is      585.2 secs

     total energy              =   -4481.88858931 Ry
     Harris-Foulkes estimate   =   -4484.29609154 Ry
     estimated scf accuracy    <      16.38596469 Ry

     iteration #  7     ecut=    60.00 Ry     beta=0.70
     Davidson diagonalization with overlap
     ethr =  3.41E-03,  avg # of iterations =  5.0

     negative rho (up, down):  0.698E-01 0.000E+00

     total cpu time spent up to now is      672.7 secs

     total energy              =   -4482.45103314 Ry
     Harris-Foulkes estimate   =   -4483.64307308 Ry
     estimated scf accuracy    <      15.43734906 Ry

     iteration #  8     ecut=    60.00 Ry     beta=0.70
     Davidson diagonalization with overlap
     ethr =  3.22E-03,  avg # of iterations =  1.0

     negative rho (up, down):  0.177E-01 0.000E+00

     total cpu time spent up to now is      751.4 secs

     total energy              =   -4480.82592169 Ry
     Harris-Foulkes estimate   =   -4482.65139626 Ry
     estimated scf accuracy    <      10.05873070 Ry

     iteration #  9     ecut=    60.00 Ry     beta=0.70
     Davidson diagonalization with overlap
     ethr =  2.10E-03,  avg # of iterations =  4.0

     negative rho (up, down):  0.130E-01 0.000E+00

     total cpu time spent up to now is      833.3 secs

     total energy              =   -4480.87408258 Ry
     Harris-Foulkes estimate   =   -4481.17933604 Ry
     estimated scf accuracy    <       4.12459585 Ry

     iteration # 10     ecut=    60.00 Ry     beta=0.70
     Davidson diagonalization with overlap
     ethr =  8.59E-04,  avg # of iterations =  5.0

     negative rho (up, down):  0.132E-01 0.000E+00

     total cpu time spent up to now is      923.1 secs

     total energy              =   -4481.51207123 Ry
     Harris-Foulkes estimate   =   -4481.45385828 Ry
     estimated scf accuracy    <       2.39002256 Ry

     iteration # 11     ecut=    60.00 Ry     beta=0.70
     Davidson diagonalization with overlap
     ethr =  4.98E-04,  avg # of iterations =  1.0

     negative rho (up, down):  0.162E-01 0.000E+00

     total cpu time spent up to now is     1001.7 secs

     total energy              =   -4481.52448919 Ry
     Harris-Foulkes estimate   =   -4481.55627976 Ry
     estimated scf accuracy    <       2.44144212 Ry

     iteration # 12     ecut=    60.00 Ry     beta=0.70
     Davidson diagonalization with overlap
     ethr =  4.98E-04,  avg # of iterations =  1.0

     negative rho (up, down):  0.458E-06 0.000E+00

     total cpu time spent up to now is     1080.3 secs

     total energy              =   -4481.16956983 Ry
     Harris-Foulkes estimate   =   -4481.56883450 Ry
     estimated scf accuracy    <       2.55911603 Ry

     iteration # 13     ecut=    60.00 Ry     beta=0.70
     Davidson diagonalization with overlap
     ethr =  4.98E-04,  avg # of iterations =  3.0

     total cpu time spent up to now is     1161.9 secs

     total energy              =   -4481.66010877 Ry
     Harris-Foulkes estimate   =   -4481.31509470 Ry
     estimated scf accuracy    <       0.67839961 Ry

     iteration # 14     ecut=    60.00 Ry     beta=0.70
     Davidson diagonalization with overlap
     ethr =  1.41E-04,  avg # of iterations =  5.0

     total cpu time spent up to now is     1286.0 secs

     total energy              =   -4482.72265498 Ry
     Harris-Foulkes estimate   =   -4482.58730414 Ry
     estimated scf accuracy    <       7.24156101 Ry

     iteration # 15     ecut=    60.00 Ry     beta=0.70
     Davidson diagonalization with overlap
     ethr =  1.41E-04,  avg # of iterations =  1.0

     negative rho (up, down):  0.145E-06 0.000E+00

     total cpu time spent up to now is     1364.5 secs

     total energy              =   -4482.85577566 Ry
     Harris-Foulkes estimate   =   -4482.72613281 Ry
     estimated scf accuracy    <       7.54358242 Ry

     iteration # 16     ecut=    60.00 Ry     beta=0.70
     Davidson diagonalization with overlap
     ethr =  1.41E-04,  avg # of iterations =  5.0

     negative rho (up, down):  0.369E-06 0.000E+00

     total cpu time spent up to now is     1450.2 secs

     total energy              =   -4483.75459735 Ry
     Harris-Foulkes estimate   =   -4482.91193718 Ry
     estimated scf accuracy    <       9.11402566 Ry

     iteration # 17     ecut=    60.00 Ry     beta=0.70
     Davidson diagonalization with overlap
     ethr =  1.41E-04,  avg # of iterations =  6.0

     negative rho (up, down):  0.355E-06 0.000E+00

     total cpu time spent up to now is     1536.8 secs

     total energy              =   -4483.09192782 Ry
     Harris-Foulkes estimate   =   -4483.82407796 Ry
     estimated scf accuracy    <      12.67761849 Ry

     iteration # 18     ecut=    60.00 Ry     beta=0.70
     Davidson diagonalization with overlap
     ethr =  1.41E-04,  avg # of iterations =  1.0

     total cpu time spent up to now is     1615.3 secs

     total energy              =   -4478.69924184 Ry
     Harris-Foulkes estimate   =   -4483.10027840 Ry
     estimated scf accuracy    <      11.30159876 Ry

     iteration # 19     ecut=    60.00 Ry     beta=0.70
     Davidson diagonalization with overlap
     ethr =  1.41E-04,  avg # of iterations =  5.0

     negative rho (up, down):  0.265E-07 0.000E+00

     total cpu time spent up to now is     1746.6 secs

     total energy              =   -4480.96795502 Ry
     Harris-Foulkes estimate   =   -4481.79263137 Ry
     estimated scf accuracy    <       2.90100560 Ry

     iteration # 20     ecut=    60.00 Ry     beta=0.70
     Davidson diagonalization with overlap
     ethr =  1.41E-04,  avg # of iterations =  6.0

     total cpu time spent up to now is     1846.3 secs

     total energy              =   -4481.24589319 Ry
     Harris-Foulkes estimate   =   -4481.29118463 Ry
     estimated scf accuracy    <       0.25253982 Ry

     iteration # 21     ecut=    60.00 Ry     beta=0.70
     Davidson diagonalization with overlap
     ethr =  5.26E-05,  avg # of iterations =  4.0

     total cpu time spent up to now is     1930.8 secs

     total energy              =   -4481.24213267 Ry
     Harris-Foulkes estimate   =   -4481.26528425 Ry
     estimated scf accuracy    <       0.12643182 Ry

     iteration # 22     ecut=    60.00 Ry     beta=0.70
     Davidson diagonalization with overlap
     ethr =  2.63E-05,  avg # of iterations =  5.0

     total cpu time spent up to now is     2035.7 secs

     total energy              =   -4481.28857418 Ry
     Harris-Foulkes estimate   =   -4481.29778406 Ry
     estimated scf accuracy    <       0.21801702 Ry

     iteration # 23     ecut=    60.00 Ry     beta=0.70
     Davidson diagonalization with overlap
     ethr =  2.63E-05,  avg # of iterations =  1.0

     total cpu time spent up to now is     2114.3 secs

     total energy              =   -4481.26536996 Ry
     Harris-Foulkes estimate   =   -4481.29014353 Ry
     estimated scf accuracy    <       0.20068928 Ry

     iteration # 24     ecut=    60.00 Ry     beta=0.70
     Davidson diagonalization with overlap
     ethr =  2.63E-05,  avg # of iterations =  5.0

     total cpu time spent up to now is     2199.4 secs

     total energy              =   -4481.26036725 Ry
     Harris-Foulkes estimate   =   -4481.27319126 Ry
     estimated scf accuracy    <       0.10616500 Ry

     iteration # 25     ecut=    60.00 Ry     beta=0.70
     Davidson diagonalization with overlap
     ethr =  2.21E-05,  avg # of iterations =  1.0

     total cpu time spent up to now is     2277.9 secs

     total energy              =   -4481.25646600 Ry
     Harris-Foulkes estimate   =   -4481.26207802 Ry
     estimated scf accuracy    <       0.07327422 Ry

     iteration # 26     ecut=    60.00 Ry     beta=0.70
     Davidson diagonalization with overlap
     ethr =  1.53E-05,  avg # of iterations =  6.0

     total cpu time spent up to now is     2363.5 secs

     total energy              =   -4481.24818117 Ry
     Harris-Foulkes estimate   =   -4481.26018834 Ry
     estimated scf accuracy    <       0.03351909 Ry

     iteration # 27     ecut=    60.00 Ry     beta=0.70
     Davidson diagonalization with overlap
     ethr =  6.98E-06,  avg # of iterations =  6.0

     total cpu time spent up to now is     2463.8 secs

     total energy              =   -4481.26145797 Ry
     Harris-Foulkes estimate   =   -4481.26186525 Ry
     estimated scf accuracy    <       0.01077588 Ry

     iteration # 28     ecut=    60.00 Ry     beta=0.70
     Davidson diagonalization with overlap
     ethr =  2.24E-06,  avg # of iterations =  3.0

     total cpu time spent up to now is     2547.4 secs

     total energy              =   -4481.26073800 Ry
     Harris-Foulkes estimate   =   -4481.26225839 Ry
     estimated scf accuracy    <       0.01164218 Ry

     iteration # 29     ecut=    60.00 Ry     beta=0.70
     Davidson diagonalization with overlap
     ethr =  2.24E-06,  avg # of iterations =  5.0

     total cpu time spent up to now is     2630.4 secs

     total energy              =   -4481.26019690 Ry
     Harris-Foulkes estimate   =   -4481.26107222 Ry
     estimated scf accuracy    <       0.00730533 Ry

     iteration # 30     ecut=    60.00 Ry     beta=0.70
     Davidson diagonalization with overlap
     ethr =  1.52E-06,  avg # of iterations =  1.0

     total cpu time spent up to now is     2708.9 secs

     total energy              =   -4481.25870097 Ry
     Harris-Foulkes estimate   =   -4481.26033070 Ry
     estimated scf accuracy    <       0.00517339 Ry

     iteration # 31     ecut=    60.00 Ry     beta=0.70
     Davidson diagonalization with overlap
     ethr =  1.08E-06,  avg # of iterations =  5.0

     total cpu time spent up to now is     2808.8 secs

     total energy              =   -4481.26031563 Ry
     Harris-Foulkes estimate   =   -4481.26067117 Ry
     estimated scf accuracy    <       0.00208050 Ry

     iteration # 32     ecut=    60.00 Ry     beta=0.70
     Davidson diagonalization with overlap
     ethr =  4.33E-07,  avg # of iterations =  1.0

     total cpu time spent up to now is     2887.5 secs

     total energy              =   -4481.25988442 Ry
     Harris-Foulkes estimate   =   -4481.26034339 Ry
     estimated scf accuracy    <       0.00137459 Ry

     iteration # 33     ecut=    60.00 Ry     beta=0.70
     Davidson diagonalization with overlap
     ethr =  2.86E-07,  avg # of iterations =  5.0

     total cpu time spent up to now is     2990.2 secs

     total energy              =   -4481.26038645 Ry
     Harris-Foulkes estimate   =   -4481.26044742 Ry
     estimated scf accuracy    <       0.00074112 Ry

     iteration # 34     ecut=    60.00 Ry     beta=0.70
     Davidson diagonalization with overlap
     ethr =  1.54E-07,  avg # of iterations =  1.0

     total cpu time spent up to now is     3068.6 secs

     total energy              =   -4481.26043808 Ry
     Harris-Foulkes estimate   =   -4481.26039157 Ry
     estimated scf accuracy    <       0.00062610 Ry

     iteration # 35     ecut=    60.00 Ry     beta=0.70
     Davidson diagonalization with overlap
     ethr =  1.30E-07,  avg # of iterations =  5.0

     total cpu time spent up to now is     3154.8 secs

     total energy              =   -4481.26035053 Ry
     Harris-Foulkes estimate   =   -4481.26049793 Ry
     estimated scf accuracy    <       0.00095354 Ry

     iteration # 36     ecut=    60.00 Ry     beta=0.70
     Davidson diagonalization with overlap
     ethr =  1.30E-07,  avg # of iterations =  1.0

     total cpu time spent up to now is     3233.1 secs

     total energy              =   -4481.26016480 Ry
     Harris-Foulkes estimate   =   -4481.26035979 Ry
     estimated scf accuracy    <       0.00065270 Ry

     iteration # 37     ecut=    60.00 Ry     beta=0.70
     Davidson diagonalization with overlap
     ethr =  1.30E-07,  avg # of iterations =  6.0

     total cpu time spent up to now is     3324.9 secs

     total energy              =   -4481.26030149 Ry
     Harris-Foulkes estimate   =   -4481.26031644 Ry
     estimated scf accuracy    <       0.00007054 Ry

     iteration # 38     ecut=    60.00 Ry     beta=0.70
     Davidson diagonalization with overlap
     ethr =  1.47E-08,  avg # of iterations =  6.0

     total cpu time spent up to now is     3431.4 secs

     total energy              =   -4481.26031548 Ry
     Harris-Foulkes estimate   =   -4481.26032825 Ry
     estimated scf accuracy    <       0.00004606 Ry

     iteration # 39     ecut=    60.00 Ry     beta=0.70
     Davidson diagonalization with overlap
     ethr =  9.59E-09,  avg # of iterations =  7.0

     total cpu time spent up to now is     3518.4 secs

     total energy              =   -4481.26031508 Ry
     Harris-Foulkes estimate   =   -4481.26031825 Ry
     estimated scf accuracy    <       0.00001163 Ry

     iteration # 40     ecut=    60.00 Ry     beta=0.70
     Davidson diagonalization with overlap
     ethr =  2.42E-09,  avg # of iterations =  5.0

     total cpu time spent up to now is     3641.4 secs

     total energy              =   -4481.26031908 Ry
     Harris-Foulkes estimate   =   -4481.26033204 Ry
     estimated scf accuracy    <       0.00005736 Ry

     iteration # 41     ecut=    60.00 Ry     beta=0.70
     Davidson diagonalization with overlap
     ethr =  2.42E-09,  avg # of iterations =  8.0

     total cpu time spent up to now is     3736.4 secs

     total energy              =   -4481.26031963 Ry
     Harris-Foulkes estimate   =   -4481.26032212 Ry
     estimated scf accuracy    <       0.00000858 Ry

     iteration # 42     ecut=    60.00 Ry     beta=0.70
     Davidson diagonalization with overlap
     ethr =  1.79E-09,  avg # of iterations =  5.0

     total cpu time spent up to now is     3825.9 secs

     total energy              =   -4481.26032082 Ry
     Harris-Foulkes estimate   =   -4481.26032108 Ry
     estimated scf accuracy    <       0.00000127 Ry

     iteration # 43     ecut=    60.00 Ry     beta=0.70
     Davidson diagonalization with overlap
     ethr =  2.65E-10,  avg # of iterations =  5.0

     total cpu time spent up to now is     3937.4 secs

     total energy              =   -4481.26032173 Ry
     Harris-Foulkes estimate   =   -4481.26032187 Ry
     estimated scf accuracy    <       0.00000116 Ry

     iteration # 44     ecut=    60.00 Ry     beta=0.70
     Davidson diagonalization with overlap
     ethr =  2.42E-10,  avg # of iterations =  1.0

     total cpu time spent up to now is     4015.9 secs

     total energy              =   -4481.26032136 Ry
     Harris-Foulkes estimate   =   -4481.26032173 Ry
     estimated scf accuracy    <       0.00000081 Ry

     iteration # 45     ecut=    60.00 Ry     beta=0.70
     Davidson diagonalization with overlap
     ethr =  1.68E-10,  avg # of iterations =  5.0

     total cpu time spent up to now is     4128.8 secs

     total energy              =   -4481.26032172 Ry
     Harris-Foulkes estimate   =   -4481.26032184 Ry
     estimated scf accuracy    <       0.00000094 Ry

     iteration # 46     ecut=    60.00 Ry     beta=0.70
     Davidson diagonalization with overlap
     ethr =  1.68E-10,  avg # of iterations =  1.0

     total cpu time spent up to now is     4207.3 secs

     total energy              =   -4481.26032158 Ry
     Harris-Foulkes estimate   =   -4481.26032172 Ry
     estimated scf accuracy    <       0.00000074 Ry

     iteration # 47     ecut=    60.00 Ry     beta=0.70
     Davidson diagonalization with overlap
     ethr =  1.55E-10,  avg # of iterations =  1.0

     total cpu time spent up to now is     4285.6 secs

     total energy              =   -4481.26032150 Ry
     Harris-Foulkes estimate   =   -4481.26032160 Ry
     estimated scf accuracy    <       0.00000033 Ry

     iteration # 48     ecut=    60.00 Ry     beta=0.70
     Davidson diagonalization with overlap
     ethr =  6.78E-11,  avg # of iterations =  5.0

     total cpu time spent up to now is     4396.7 secs

     total energy              =   -4481.26032164 Ry
     Harris-Foulkes estimate   =   -4481.26032171 Ry
     estimated scf accuracy    <       0.00000019 Ry

     iteration # 49     ecut=    60.00 Ry     beta=0.70
     Davidson diagonalization with overlap
     ethr =  3.86E-11,  avg # of iterations =  1.0

     total cpu time spent up to now is     4475.1 secs

     total energy              =   -4481.26032171 Ry
     Harris-Foulkes estimate   =   -4481.26032165 Ry
     estimated scf accuracy    <       0.00000015 Ry

     iteration # 50     ecut=    60.00 Ry     beta=0.70
     Davidson diagonalization with overlap
     ethr =  3.10E-11,  avg # of iterations =  6.0

     total cpu time spent up to now is     4566.1 secs

     End of self-consistent calculation

          k =-0.0134-0.0159 0.0213 (120179 PWs)   bands (ev):

   -27.3169 -27.3169 -27.2933 -27.2932 -27.1715 -27.1715 -27.1471 -27.1471
   -26.9817 -26.9816 -26.9796 -26.9796 -26.8885 -26.8885 -26.8607 -26.8607
   -26.7343 -26.7342 -26.7032 -26.7031 -26.6254 -26.6253 -26.6156 -26.6155
   -26.5481 -26.5480 -26.5379 -26.5378 -26.4857 -26.4855 -26.4613 -26.4611
   -18.0922 -18.0922 -18.0839 -18.0838 -17.8754 -17.8753 -17.8686 -17.8686
   -15.8204 -15.8204 -15.8130 -15.8130 -15.0447 -15.0445 -15.0293 -15.0291
   -14.8382 -14.8380 -14.8155 -14.8152 -14.7723 -14.7723 -14.7710 -14.7710
   -13.9426 -13.9425 -13.9379 -13.9379 -12.8059 -12.8059 -12.7989 -12.7989
   -11.9026 -11.9023 -11.8995 -11.8991 -11.7855 -11.7854 -11.7838 -11.7837
   -11.6715 -11.6713 -11.6654 -11.6652 -10.7891 -10.7889 -10.7880 -10.7878
   -10.5496 -10.5489 -10.5481 -10.5473 -10.0776 -10.0765 -10.0686 -10.0675
    -9.7453  -9.7448  -9.7427  -9.7422  -9.5409  -9.5401  -9.5324  -9.5316
    -9.4356  -9.4350  -9.4295  -9.4290  -9.3579  -9.3573  -9.3519  -9.3513
    -9.1783  -9.1771  -9.1702  -9.1690  -8.8751  -8.8727  -8.8711  -8.8688
    -8.7628  -8.7611  -8.7456  -8.7439  -8.2959  -8.2953  -8.2914  -8.2909
    -8.1141  -8.1136  -8.1068  -8.1064  -8.0438  -8.0433  -8.0350  -8.0345
    -7.9817  -7.9813  -7.9696  -7.9692  -7.4123  -7.4112  -7.4035  -7.4024
    -7.1772  -7.1766  -7.1596  -7.1591  -6.9547  -6.9539  -6.9465  -6.9456
    -6.7846  -6.7842  -6.7673  -6.7669  -6.6088  -6.6076  -6.6055  -6.6044
    -6.5187  -6.5187  -6.4976  -6.4975  -6.1894  -6.1894  -6.1865  -6.1865
    -5.9852  -5.9850  -5.9799  -5.9797  -5.8989  -5.8988  -5.8802  -5.8801
    -5.7579  -5.7573  -5.7531  -5.7523  -5.6616  -5.6609  -5.6566  -5.6560
    -5.6230  -5.6218  -5.6072  -5.6057  -5.2101  -5.2081  -5.2067  -5.2047
    -5.0504  -5.0495  -5.0459  -5.0450  -4.8557  -4.8547  -4.8461  -4.8452
    -4.7736  -4.7733  -4.7656  -4.7652  -4.6642  -4.6639  -4.6610  -4.6607
    -4.2621  -4.2615  -4.2574  -4.2568  -3.8287  -3.8286  -3.8220  -3.8219
    -3.6088  -3.6086  -3.6034  -3.6032  -3.5134  -3.5133  -3.5063  -3.5061
    -2.4162  -2.4156  -2.4134  -2.4128  -2.2487  -2.2484  -2.2415  -2.2412
    -2.1767  -2.1762  -2.1699  -2.1693  -2.0324  -2.0322  -2.0298  -2.0296
    -1.8592  -1.8583  -1.8523  -1.8514  -1.5944  -1.5943  -1.5902  -1.5900
 TIME (initial):        0.0
* Atoms contributing density to the main cell
  Number of atoms:   16100
 
 TIME (set up the environment):        0.3
 DOCALC: T F T T
 ESAVE:       0.000000000000       0.000000000000       0.000000000000
* XDM: using PAW all-electron density reconstruction? T
 TIME (promolecular grid):       50.0
 TIME (calculation of b grid):       51.1
 TIME (calculation of volumes and moments):      353.2
 
+ Volume and moments
# All results in atomic units.
# i              V                  Vfree                 M1                  M2                  M3
  1        33.0187565906        39.0349749523         3.9008454967        54.3600000148      1070.8072891815
  2        33.0234415286        39.0349749523         3.9049065380        54.3986818573      1071.1276089669
  3        33.0187565906        39.0349749523         3.9008454967        54.3600000148      1070.8072891815
  4        33.0234415286        39.0349749523         3.9049065380        54.3986818573      1071.1276089669
  5        33.2656463921        39.0349749523         3.8984312483        54.2629911942      1067.1156318049
  6        33.2691718402        39.0349749523         3.9014322556        54.3040615123      1068.2066527079
  7        33.2656463921        39.0349749523         3.8984312483        54.2629911942      1067.1156318049
  8        33.2691718402        39.0349749523         3.9014322556        54.3040615123      1068.2066527079
  9        33.2632402359        39.0349749523         3.8963505313        54.4071006892      1081.2037881645
 10        33.2750344721        39.0349749523         3.9040241123        54.5136715857      1082.5125882161
 11        33.2632402359        39.0349749523         3.8963505313        54.4071006892      1081.2037881646
 12        33.2750344721        39.0349749523         3.9040241123        54.5136715857      1082.5125882161
 13        33.2656908168        39.0349749523         3.8712320976        53.9531818121      1077.2365133189
 14        33.2613904892        39.0349749523         3.8635545743        53.8764467126      1076.5229829962
 15        33.2656908168        39.0349749523         3.8712320976        53.9531818121      1077.2365133190
 16        33.2613904892        39.0349749523         3.8635545743        53.8764467126      1076.5229829963
 17        33.4364906179        39.0349749523         3.8667139739        53.8269562320      1064.7858635441
 18        33.4472349699        39.0349749523         3.8655034601        53.8135465256      1064.5532223263
 19        33.4364906179        39.0349749523         3.8667139739        53.8269562320      1064.7858635442
 20        33.4472349699        39.0349749523         3.8655034601        53.8135465256      1064.5532223263
 21        33.9903903094        39.0349749523         3.7788481078        50.9617908283      1012.1882522347
 22        33.9896397540        39.0349749523         3.7743169387        50.9430530077      1012.8672390758
 23        33.9903903094        39.0349749523         3.7788481078        50.9617908283      1012.1882522348
 24        33.9896397540        39.0349749523         3.7743169387        50.9430530077      1012.8672390758
 25        33.3197020196        39.0349749523         3.8824075675        54.5268624085      1090.5736068940
 26        33.2971408250        39.0349749523         3.8803018544        54.4869987759      1089.5688598197
 27        33.3197020196        39.0349749523         3.8824075675        54.5268624085      1090.5736068940
 28        33.2971408250        39.0349749523         3.8803018544        54.4869987759      1089.5688598197
 29        33.8607989339        39.0349749523         3.8914099760        54.4345090193      1085.3454087931
 30        33.8714260580        39.0349749523         3.8952977117        54.4957664613      1086.5075027718
 31        33.8607989339        39.0349749523         3.8914099760        54.4345090193      1085.3454087931
 32        33.8714260580        39.0349749523         3.8952977117        54.4957664613      1086.5075027718
 33        33.8503416404        39.0349749523         3.7712165039        51.0799769637      1015.7371862992
 34        33.8605664572        39.0349749523         3.7778163668        51.1403221172      1016.0379856668
 35        33.8503416404        39.0349749523         3.7712165039        51.0799769637      1015.7371862992
 36        33.8605664572        39.0349749523         3.7778163668        51.1403221172      1016.0379856668
 37        34.3125689531        39.0349749523         3.8302034658        51.5427707616      1022.8773950291
 38        34.3222302998        39.0349749523         3.8319340650        51.5562042981      1023.1033009525
 39        34.3125689531        39.0349749523         3.8302034658        51.5427707616      1022.8773950291
 40        34.3222302998        39.0349749523         3.8319340650        51.5562042981      1023.1033009525
 41        33.5786411489        39.0349749523         3.8837974367        54.7308114274      1087.4224636885
 42        33.5665450074        39.0349749523         3.8873263194        54.7602718982      1087.1112979610
 43        33.5786411489        39.0349749523         3.8837974367        54.7308114274      1087.4224636884
 44        33.5665450074        39.0349749523         3.8873263194        54.7602718982      1087.1112979611
 45        33.9380248831        39.0349749523         3.8548535902        52.0968304955      1027.5555488126
 46        33.9435408411        39.0349749523         3.8606103370        52.1626469934      1027.9907776836
 47        33.9380248831        39.0349749523         3.8548535902        52.0968304955      1027.5555488126
 48        33.9435408411        39.0349749523         3.8606103370        52.1626469934      1027.9907776836
 49        94.2115195720       114.0071219785         8.0942588238       167.7003093068      4053.3369768816
 50        94.2411270580       114.0071219785         8.0963715322       167.7444470380      4054.8748381598
 51        94.2115195720       114.0071219785         8.0942588238       167.7003093068      4053.3369768819
 52        94.2411270580       114.0071219785         8.0963715322       167.7444470380      4054.8748381597
 53        94.0644845707       114.0071219785         8.2400985702       171.0250068447      4139.0187972082
 54        94.1175554445       114.0071219785         8.2433792691       171.1097288878      4140.7214793835
 55        94.0644845707       114.0071219785         8.2400985702       171.0250068447      4139.0187972080
 56        94.1175554445       114.0071219785         8.2433792691       171.1097288878      4140.7214793840
 57        17.7651420414        19.2806797260         4.6614109104        28.9177723881       237.1299833562
 58        17.7534660647        19.2806797260         4.6564868744        28.8844290259       236.8704564114
 59        17.7651420414        19.2806797260         4.6614109104        28.9177723881       237.1299833561
 60        17.7534660647        19.2806797260         4.6564868744        28.8844290259       236.8704564114
 61        17.8756470367        19.2806797260         4.7202910553        29.3308058579       242.7455484175
 62        17.8679519918        19.2806797260         4.7201749353        29.3286123082       242.8525417160
 63        17.8756470367        19.2806797260         4.7202910553        29.3308058579       242.7455484175
 64        17.8679519918        19.2806797260         4.7201749353        29.3286123082       242.8525417159
 65        17.6738691875        19.2806797260         4.5745467393        28.1605073694       239.6718701092
 66        17.6644672145        19.2806797260         4.5668401529        28.1068410610       239.2794338726
 67        17.6738691875        19.2806797260         4.5745467393        28.1605073694       239.6718701092
 68        17.6644672145        19.2806797260         4.5668401529        28.1068410610       239.2794338726
 69        17.7887502716        19.2806797260         4.6395401414        28.8102047229       241.8260373078
 70        17.7881690203        19.2806797260         4.6438486763        28.8423385208       242.0464580734
 71        17.7887502716        19.2806797260         4.6395401414        28.8102047229       241.8260373078
 72        17.7881690203        19.2806797260         4.6438486763        28.8423385208       242.0464580734
 73        17.7839981318        19.2806797260         4.6615053775        28.8174755491       240.1817108622
 74        17.8023707850        19.2806797260         4.6663393546        28.8551070829       240.4150851088
 75        17.7839981318        19.2806797260         4.6615053775        28.8174755491       240.1817108623
 76        17.8023707850        19.2806797260         4.6663393546        28.8551070829       240.4150851088
 77        17.8000414332        19.2806797260         4.6499633300        28.8844037218       243.8899789845
 78        17.7973669006        19.2806797260         4.6459095936        28.8517302765       243.6320476669
 79        17.8000414332        19.2806797260         4.6499633300        28.8844037218       243.8899789845
 80        17.7973669006        19.2806797260         4.6459095936        28.8517302765       243.6320476669
 81        17.9650295684        19.2806797260         4.6857439999        29.1610247685       250.1518298468
 82        17.9679469903        19.2806797260         4.6885973814        29.1842360534       250.4369750665
 83        17.9650295684        19.2806797260         4.6857439999        29.1610247685       250.1518298468
 84        17.9679469903        19.2806797260         4.6885973814        29.1842360534       250.4369750665
 85        17.9440767955        19.2806797260         4.6984351852        29.4520478215       248.7395377005
 86        17.9374916745        19.2806797260         4.6968261342        29.4410906239       248.6393617192
 87        17.9440767955        19.2806797260         4.6984351852        29.4520478215       248.7395377005
 88        17.9374916745        19.2806797260         4.6968261342        29.4410906239       248.6393617192
 89        71.1647996966        77.4908459489         8.0882258571       132.0372377424      2231.8191712018
 90        71.1637207265        77.4908459489         8.0901395082       132.0662959244      2232.7109353169
 91        71.1647996966        77.4908459489         8.0882258571       132.0372377424      2231.8191712018
 92        71.1637207265        77.4908459489         8.0901395082       132.0662959244      2232.7109353169
 
+ Dispersion coefficients
# All results in atomic units.
# i   j              C6                  C8                  C10                   Rc                  Rvdw
  1   1        19.5949806038       819.1940543255     37497.9569683123         6.6151557912         7.2536922450
  2   1        19.6065666268       819.5435297590     37506.8871281023         6.6145714707         7.2534558874
  2   2        19.6181634612       819.8932975995     37515.8240463095         6.6139870717         7.2532194980
  3   1        19.5949806038       819.1940543255     37497.9569683116         6.6151557912         7.2536922450
  3   2        19.6065666268       819.5435297590     37506.8871281016         6.6145714707         7.2534558874
  3   3        19.5949806038       819.1940543255     37497.9569683109         6.6151557912         7.2536922450
  4   1        19.6065666268       819.5435297590     37506.8871281017         6.6145714707         7.2534558874
  4   2        19.6181634612       819.8932975995     37515.8240463089         6.6139870717         7.2532194980
  4   3        19.6065666268       819.5435297590     37506.8871281011         6.6145714707         7.2534558874
  4   4        19.6181634612       819.8932975995     37515.8240463084         6.6139870717         7.2532194980
  5   1        19.6618552688       821.5104615680     37576.6738390188         6.6129860965         7.2528146035
  5   2        19.6734451714       821.8593564924     37585.5433804961         6.6124014718         7.2525781228
  5   3        19.6618552688       821.5104615680     37576.6738390181         6.6129860965         7.2528146035
  5   4        19.6734451714       821.8593564924     37585.5433804956         6.6124014718         7.2525781228
  5   5        19.7292792638       823.8465465426     37656.1259993138         6.6108152286         7.2519364874
  6   1        19.6704891346       821.8658977403     37595.6856141179         6.6130985183         7.2528600781
  6   2        19.6820870605       822.2150653099     37604.5662043870         6.6125139259         7.2526236105
  6   3        19.6704891346       821.8658977404     37595.6856141172         6.6130985183         7.2528600781
  6   4        19.6820870605       822.2150653099     37604.5662043865         6.6125139259         7.2526236105
  6   5        19.7379163190       824.2018872136     37675.1310915359         6.6109277684         7.2519820098
  6   6        19.7465593287       824.5574718727     37694.1497585960         6.6110403045         7.2520275306
  7   1        19.6618552688       821.5104615680     37576.6738390195         6.6129860965         7.2528146035
  7   2        19.6734451714       821.8593564924     37585.5433804968         6.6124014718         7.2525781228
  7   3        19.6618552688       821.5104615680     37576.6738390188         6.6129860965         7.2528146035
  7   4        19.6734451714       821.8593564924     37585.5433804963         6.6124014718         7.2525781228
  7   5        19.7292792638       823.8465465426     37656.1259993144         6.6108152286         7.2519364874
  7   6        19.7379163190       824.2018872136     37675.1310915366         6.6109277684         7.2519820098
  7   7        19.7292792638       823.8465465426     37656.1259993151         6.6108152286         7.2519364874
  8   1        19.6704891346       821.8658977403     37595.6856141169         6.6130985183         7.2528600781
  8   2        19.6820870605       822.2150653099     37604.5662043860         6.6125139259         7.2526236105
  8   3        19.6704891346       821.8658977403     37595.6856141162         6.6130985183         7.2528600781
  8   4        19.6820870605       822.2150653099     37604.5662043855         6.6125139259         7.2526236105
  8   5        19.7379163190       824.2018872136     37675.1310915349         6.6109277684         7.2519820098
  8   6        19.7465593287       824.5574718727     37694.1497585950         6.6110403045         7.2520275306
  8   7        19.7379163190       824.2018872136     37675.1310915356         6.6109277684         7.2519820098
  8   8        19.7465593287       824.5574718727     37694.1497585940         6.6110403045         7.2520275306
  9   1        19.6558777568       822.5703465499     37764.2381591991         6.6217791888         7.2563714094
  9   2        19.6674620967       822.9198220577     37773.2015542039         6.6211961402         7.2561355662
  9   3        19.6558777568       822.5703465499     37764.2381591984         6.6217791888         7.2563714094
  9   4        19.6674620967       822.9198220577     37773.2015542033         6.6211961402         7.2561355662
  9   5        19.7232996160       824.9109802740     37844.3239555165         6.6196142653         7.2554956978
  9   6        19.7319325427       825.2667253606     37863.4071124324         6.6197263783         7.2555410475
  9   7        19.7232996160       824.9109802740     37844.3239555172         6.6196142653         7.2554956978
  9   8        19.7319325427       825.2667253606     37863.4071124314         6.6197263783         7.2555410475
  9   9        19.7173228305       825.9747370858     38032.5697904305         6.6283867660         7.2590441743
 10   1        19.6787727809       823.5240854779     37799.7823499456         6.6214040358         7.2562196600
 10   2        19.6903777492       823.8742640149     37808.7649664080         6.6208208920         7.2559837783
 10   3        19.6787727809       823.5240854779     37799.7823499450         6.6214040358         7.2562196600
 10   4        19.6903777492       823.8742640149     37808.7649664075         6.6208208920         7.2559837783
 10   5        19.7462089264       825.8647434889     37879.8094229763         6.6192387618         7.2553438066
 10   6        19.7548571663       826.2211209280     37898.9211800638         6.6193508889         7.2553891620
 10   7        19.7462089264       825.8647434889     37879.8094229770         6.6192387618         7.2553438066
 10   8        19.7548571663       826.2211209280     37898.9211800628         6.6193508889         7.2553891620
 10   9        19.7402215248       826.9295833222     38068.2688472719         6.6280125945         7.2588928220
 10  10        19.7631596669       827.8860718392     38104.0243122254         6.6276383733         7.2587414495
 11   1        19.6558777568       822.5703465499     37764.2381591992         6.6217791888         7.2563714094
 11   2        19.6674620967       822.9198220577     37773.2015542040         6.6211961402         7.2561355662
 11   3        19.6558777568       822.5703465499     37764.2381591985         6.6217791888         7.2563714094
 11   4        19.6674620967       822.9198220577     37773.2015542035         6.6211961402         7.2561355662
 11   5        19.7232996160       824.9109802740     37844.3239555167         6.6196142653         7.2554956978
 11   6        19.7319325427       825.2667253606     37863.4071124325         6.6197263783         7.2555410475
 11   7        19.7232996160       824.9109802740     37844.3239555173         6.6196142653         7.2554956978
 11   8        19.7319325427       825.2667253606     37863.4071124315         6.6197263783         7.2555410475
 11   9        19.7173228305       825.9747370858     38032.5697904307         6.6283867660         7.2590441743
 11  10        19.7402215248       826.9295833222     38068.2688472720         6.6280125945         7.2588928220
 11  11        19.7173228305       825.9747370858     38032.5697904308         6.6283867660         7.2590441743
 12   1        19.6787727809       823.5240854779     37799.7823499453         6.6214040358         7.2562196600
 12   2        19.6903777492       823.8742640149     37808.7649664077         6.6208208920         7.2559837783
 12   3        19.6787727809       823.5240854779     37799.7823499446         6.6214040358         7.2562196600
 12   4        19.6903777492       823.8742640149     37808.7649664071         6.6208208920         7.2559837783
 12   5        19.7462089264       825.8647434889     37879.8094229759         6.6192387618         7.2553438066
 12   6        19.7548571663       826.2211209280     37898.9211800634         6.6193508889         7.2553891620
 12   7        19.7462089264       825.8647434889     37879.8094229766         6.6192387618         7.2553438066
 12   8        19.7548571663       826.2211209280     37898.9211800624         6.6193508889         7.2553891620
 12   9        19.7402215248       826.9295833222     38068.2688472715         6.6280125945         7.2588928220
 12  10        19.7631596669       827.8860718392     38104.0243122251         6.6276383733         7.2587414495
 12  11        19.7402215248       826.9295833222     38068.2688472717         6.6280125945         7.2588928220
 12  12        19.7631596669       827.8860718391     38104.0243122247         6.6276383733         7.2587414495
 13   1        19.5927615725       819.1457534651     37642.8081261437         6.6218210867         7.2563883571
 13   2        19.6042799057       819.4924409129     37651.6973767908         6.6212384773         7.2561526915
 13   3        19.5927615725       819.1457534651     37642.8081261430         6.6218210867         7.2563883571
 13   4        19.6042799057       819.4924409129     37651.6973767902         6.6212384773         7.2561526915
 13   5        19.6602263361       821.4870233969     37723.1696853310         6.6196576889         7.2555132626
 13   6        19.6688103136       821.8403950744     37742.1512015469         6.6197698628         7.2555586370
 13   7        19.6602263361       821.4870233970     37723.1696853317         6.6196576889         7.2555132626
 13   8        19.6688103136       821.8403950744     37742.1512015459         6.6197698628         7.2555586370
 13   9        19.6542834980       822.5482374073     37910.7444572751         6.6284269538         7.2590604303
 13  10        19.6770570795       823.4969462101     37946.2293489584         6.6280526813         7.2589090371
 13  11        19.6542834980       822.5482374073     37910.7444572753         6.6284269538         7.2590604303
 13  12        19.6770570795       823.4969462100     37946.2293489581         6.6280526813         7.2589090371
 13  13        19.5916552787       819.1439670458     37789.7720264031         6.6284707969         7.2590781648
 14   1        19.5719130360       818.5040882406     37626.1423032755         6.6228521326         7.2568054151
 14   2        19.5834109479       818.8502005850     37635.0171990815         6.6222696652         7.2565698071
 14   3        19.5719130360       818.5040882406     37626.1423032748         6.6228521326         7.2568054151
 14   4        19.5834109479       818.8502005850     37635.0171990809         6.6222696652         7.2565698071
 14   5        19.6393795305       820.8467315769     37706.6295402329         6.6206892834         7.2559305426
 14   6        19.6479483571       821.1995765027     37725.5894419168         6.6208014013         7.2559758943
 14   7        19.6393795305       820.8467315769     37706.6295402336         6.6206892834         7.2559305426
 14   8        19.6479483571       821.1995765026     37725.5894419158         6.6208014013         7.2559758943
 14   9        19.6334471982       821.9069265706     37894.0351332947         6.6294557492         7.2594765780
 14  10        19.6561819263       822.8542811254     37929.4811325127         6.6290816429         7.2593252520
 14  11        19.6334471982       821.9069265706     37894.0351332948         6.6294557492         7.2594765780
 14  12        19.6561819263       822.8542811254     37929.4811325123         6.6290816429         7.2593252520
 14  13        19.5709447705       818.5080142043     37773.2136053138         6.6294988545         7.2594940141
 14  14        19.5502729903       817.8731948026     37756.6855144460         6.6305266557         7.2599097597
 15   1        19.5927615725       819.1457534651     37642.8081261445         6.6218210867         7.2563883571
 15   2        19.6042799057       819.4924409129     37651.6973767916         6.6212384773         7.2561526915
 15   3        19.5927615725       819.1457534651     37642.8081261438         6.6218210867         7.2563883571
 15   4        19.6042799057       819.4924409129     37651.6973767911         6.6212384773         7.2561526915
 15   5        19.6602263361       821.4870233969     37723.1696853318         6.6196576889         7.2555132626
 15   6        19.6688103136       821.8403950744     37742.1512015477         6.6197698628         7.2555586370
 15   7        19.6602263361       821.4870233970     37723.1696853325         6.6196576889         7.2555132626
 15   8        19.6688103136       821.8403950744     37742.1512015467         6.6197698628         7.2555586370
 15   9        19.6542834980       822.5482374073     37910.7444572759         6.6284269538         7.2590604303
 15  10        19.6770570795       823.4969462101     37946.2293489592         6.6280526813         7.2589090371
 15  11        19.6542834980       822.5482374073     37910.7444572761         6.6284269538         7.2590604303
 15  12        19.6770570795       823.4969462101     37946.2293489589         6.6280526813         7.2589090371
 15  13        19.5916552787       819.1439670459     37789.7720264039         6.6284707969         7.2590781648
 15  14        19.5709447705       818.5080142043     37773.2136053146         6.6294988545         7.2594940141
 15  15        19.5916552787       819.1439670459     37789.7720264047         6.6284707969         7.2590781648
 16   1        19.5719130360       818.5040882406     37626.1423032759         6.6228521326         7.2568054151
 16   2        19.5834109479       818.8502005850     37635.0171990819         6.6222696652         7.2565698071
 16   3        19.5719130360       818.5040882406     37626.1423032753         6.6228521326         7.2568054151
 16   4        19.5834109479       818.8502005850     37635.0171990813         6.6222696652         7.2565698071
 16   5        19.6393795305       820.8467315769     37706.6295402334         6.6206892834         7.2559305426
 16   6        19.6479483571       821.1995765027     37725.5894419172         6.6208014013         7.2559758943
 16   7        19.6393795305       820.8467315770     37706.6295402340         6.6206892834         7.2559305426
 16   8        19.6479483571       821.1995765026     37725.5894419162         6.6208014013         7.2559758943
 16   9        19.6334471982       821.9069265706     37894.0351332951         6.6294557492         7.2594765780
 16  10        19.6561819263       822.8542811254     37929.4811325131         6.6290816429         7.2593252520
 16  11        19.6334471982       821.9069265706     37894.0351332952         6.6294557492         7.2594765780
 16  12        19.6561819263       822.8542811254     37929.4811325127         6.6290816429         7.2593252520
 16  13        19.5709447705       818.5080142043     37773.2136053142         6.6294988545         7.2594940141
 16  14        19.5502729903       817.8731948026     37756.6855144464         6.6305266557         7.2599097597
 16  15        19.5709447705       818.5080142043     37773.2136053150         6.6294988545         7.2594940141
 16  16        19.5502729903       817.8731948026     37756.6855144468         6.6305266557         7.2599097597
 17   1        19.6309675775       820.2613696221     37583.7595010882         6.6159394481         7.2540092342
 17   2        19.6424806208       820.6072905678     37592.5412986907         6.6153555710         7.2537730559
 17   3        19.6309675775       820.2613696221     37583.7595010875         6.6159394481         7.2540092342
 17   4        19.6424806208       820.6072905678     37592.5412986901         6.6153555710         7.2537730559
 17   5        19.6988137800       822.6159812989     37664.3214622666         6.6137713338         7.2531322320
 17   6        19.7073940463       822.9689769556     37683.2431443349         6.6138837617         7.2531777091
 17   7        19.6988137800       822.6159812989     37664.3214622674         6.6137713338         7.2531322320
 17   8        19.7073940463       822.9689769556     37683.2431443339         6.6138837617         7.2531777091
 17   9        19.6928735678       823.6800219874     37852.2719244740         6.6225598782         7.2566871982
 17  10        19.7156418657       824.6279423614     37887.5766066320         6.6221847688         7.2565354664
 17  11        19.6928735678       823.6800219874     37852.2719244741         6.6225598782         7.2566871982
 17  12        19.7156418657       824.6279423614     37887.5766066317         6.6221847688         7.2565354664
 17  13        19.6303242660       820.2790433924     37731.9094757016         6.6226040615         7.2567050704
 17  14        19.6096301010       819.6447362623     37715.5578848321         6.6236343497         7.2571218219
 17  15        19.6303242660       820.2790433924     37731.9094757024         6.6226040615         7.2567050704
 17  16        19.6096301010       819.6447362623     37715.5578848325         6.6236343497         7.2571218219
 17  17        19.6692640660       821.4235315658     37674.0659260006         6.6167243171         7.2543267138
 18   1        19.6309803339       820.2881181249     37585.8296501500         6.6160292333         7.2540455524
 18   2        19.6424905856       820.6339377242     37594.6069588634         6.6154453653         7.2538093777
 18   3        19.6309803339       820.2881181249     37585.8296501493         6.6160292333         7.2540455524
 18   4        19.6424905856       820.6339377242     37594.6069588629         6.6154453653         7.2538093777
 18   5        19.6988517862       822.6438745528     37666.4457329457         6.6138611554         7.2531685648
 18   6        19.7074299953       822.9967957452     37685.3643662814         6.6139735779         7.2532140398
 18   7        19.6988517862       822.6438745528     37666.4457329463         6.6138611554         7.2531685648
 18   8        19.7074299953       822.9967957452     37685.3643662804         6.6139735779         7.2532140398
 18   9        19.6929130040       823.7079696540     37854.4019806936         6.6226494794         7.2567234419
 18  10        19.7156763042       824.6557113813     37889.6994053375         6.6222743852         7.2565717163
 18  11        19.6929130040       823.7079696540     37854.4019806938         6.6226494794         7.2567234419
 18  12        19.7156763042       824.6557113813     37889.6994053371         6.6222743852         7.2565717163
 18  13        19.6303839415       820.3077517031     37734.0699550046         6.6226935697         7.2567412764
 18  14        19.6096954855       819.6736562741     37717.7278341130         6.6237238411         7.2571580212
 18  15        19.6303839415       820.3077517031     37734.0699550055         6.6226935697         7.2567412764
 18  16        19.6096954855       819.6736562742     37717.7278341134         6.6237238411         7.2571580212
 18  17        19.6693434787       821.4531146992     37676.2666638666         6.6168140182         7.2543629979
 18  18        19.6694248707       821.4827807106     37678.4712753406         6.6169037186         7.2543992817
 19   1        19.6309675775       820.2613696221     37583.7595010896         6.6159394481         7.2540092342
 19   2        19.6424806208       820.6072905678     37592.5412986921         6.6153555710         7.2537730559
 19   3        19.6309675775       820.2613696221     37583.7595010889         6.6159394481         7.2540092342
 19   4        19.6424806208       820.6072905678     37592.5412986915         6.6153555710         7.2537730559
 19   5        19.6988137800       822.6159812989     37664.3214622681         6.6137713338         7.2531322320
 19   6        19.7073940463       822.9689769556     37683.2431443363         6.6138837617         7.2531777091
 19   7        19.6988137800       822.6159812989     37664.3214622688         6.6137713338         7.2531322320
 19   8        19.7073940463       822.9689769556     37683.2431443353         6.6138837617         7.2531777091
 19   9        19.6928735678       823.6800219875     37852.2719244754         6.6225598782         7.2566871982
 19  10        19.7156418657       824.6279423614     37887.5766066335         6.6221847688         7.2565354664
 19  11        19.6928735678       823.6800219875     37852.2719244755         6.6225598782         7.2566871982
 19  12        19.7156418657       824.6279423614     37887.5766066331         6.6221847688         7.2565354664
 19  13        19.6303242660       820.2790433924     37731.9094757030         6.6226040615         7.2567050704
 19  14        19.6096301010       819.6447362623     37715.5578848335         6.6236343497         7.2571218219
 19  15        19.6303242660       820.2790433924     37731.9094757038         6.6226040615         7.2567050704
 19  16        19.6096301010       819.6447362623     37715.5578848339         6.6236343497         7.2571218219
 19  17        19.6692640660       821.4235315658     37674.0659260020         6.6167243171         7.2543267138
 19  18        19.6693434787       821.4531146992     37676.2666638680         6.6168140182         7.2543629979
 19  19        19.6692640660       821.4235315658     37674.0659260034         6.6167243171         7.2543267138
 20   1        19.6309803339       820.2881181249     37585.8296501498         6.6160292333         7.2540455524
 20   2        19.6424905856       820.6339377242     37594.6069588632         6.6154453653         7.2538093777
 20   3        19.6309803339       820.2881181249     37585.8296501491         6.6160292333         7.2540455524
 20   4        19.6424905856       820.6339377242     37594.6069588626         6.6154453653         7.2538093777
 20   5        19.6988517862       822.6438745528     37666.4457329455         6.6138611554         7.2531685648
 20   6        19.7074299953       822.9967957452     37685.3643662812         6.6139735779         7.2532140398
 20   7        19.6988517862       822.6438745528     37666.4457329461         6.6138611554         7.2531685648
 20   8        19.7074299953       822.9967957452     37685.3643662802         6.6139735779         7.2532140398
 20   9        19.6929130040       823.7079696540     37854.4019806934         6.6226494794         7.2567234419
 20  10        19.7156763042       824.6557113813     37889.6994053373         6.6222743852         7.2565717163
 20  11        19.6929130040       823.7079696540     37854.4019806936         6.6226494794         7.2567234419
 20  12        19.7156763042       824.6557113813     37889.6994053369         6.6222743852         7.2565717163
 20  13        19.6303839415       820.3077517031     37734.0699550044         6.6226935697         7.2567412764
 20  14        19.6096954855       819.6736562741     37717.7278341128         6.6237238411         7.2571580212
 20  15        19.6303839415       820.3077517031     37734.0699550053         6.6226935697         7.2567412764
 20  16        19.6096954855       819.6736562741     37717.7278341132         6.6237238411         7.2571580212
 20  17        19.6693434787       821.4531146992     37676.2666638664         6.6168140182         7.2543629979
 20  18        19.6694248707       821.4827807106     37678.4712753404         6.6169037186         7.2543992817
 20  19        19.6693434787       821.4531146992     37676.2666638678         6.6168140182         7.2543629979
 20  20        19.6694248707       821.4827807106     37678.4712753402         6.6169037186         7.2543992817
 21   1        19.5588091491       804.4979837605     36654.1740875273         6.5809696386         7.2398639463
 21   2        19.5701066550       804.8280329629     36662.2987628322         6.5803836626         7.2396269190
 21   3        19.5588091491       804.4979837605     36654.1740875266         6.5809696386         7.2398639463
 21   4        19.5701066550       804.8280329629     36662.2987628316         6.5803836626         7.2396269190
 21   5        19.6279658779       806.8640059417     36735.2063417752         6.5787923189         7.2389832205
 21   6        19.6363869339       807.2048833757     36753.4804838451         6.5789070844         7.2390296431
 21   7        19.6279658779       806.8640059417     36735.2063417758         6.5787923189         7.2389832205
 21   8        19.6363869339       807.2048833756     36753.4804838441         6.5789070844         7.2390296431
 21   9        19.6221362444       807.9317509745     36921.2973546177         6.5876571321         7.2425690374
 21  10        19.6445106177       808.8486273085     36954.9741894285         6.5872756019         7.2424147084
 21  11        19.6221362444       807.9317509745     36921.2973546178         6.5876571321         7.2425690374
 21  12        19.6445106177       808.8486273085     36954.9741894281         6.5872756019         7.2424147084
 21  13        19.5610721102       804.6354612098     36807.2155841666         6.5877504577         7.2426067876
 21  14        19.5408082433       804.0315338256     36792.1495186114         6.5887848912         7.2430252160
 21  15        19.5610721102       804.6354612098     36807.2155841674         6.5877504577         7.2426067876
 21  16        19.5408082433       804.0315338256     36792.1495186118         6.5887848912         7.2430252160
 21  17        19.6010890224       805.8005481041     36750.8681301404         6.5817955203         7.2401980155
 21  18        19.6012906773       805.8350139723     36753.2559178936         6.5818852050         7.2402342929
 21  19        19.6010890224       805.8005481041     36750.8681301418         6.5817955203         7.2401980155
 21  20        19.6012906773       805.8350139723     36753.2559178935         6.5818852050         7.2402342929
 21  21        19.5407379712       790.5829814149     35863.0334262116         6.5470395627         7.2261392306
 22   1        19.5465104020       804.3212470656     36663.5721554718         6.5824283246         7.2404539848
 22   2        19.5577956340       804.6510661469     36671.6965404059         6.5818425486         7.2402170384
 22   3        19.5465104020       804.3212470656     36663.5721554712         6.5824283246         7.2404539848
 22   4        19.5577956340       804.6510661469     36671.6965404054         6.5818425486         7.2402170384
 22   5        19.6156702056       806.6888600672     36744.7403690476         6.5802517794         7.2395735723
 22   6        19.6240821552       807.0295081232     36763.0096836734         6.5803664628         7.2396199617
 22   7        19.6156702056       806.6888600672     36744.7403690483         6.5802517794         7.2395735723
 22   8        19.6240821552       807.0295081232     36763.0096836724         6.5803664628         7.2396199617
 22   9        19.6098468869       807.7559478138     36930.7512248096         6.5891125792         7.2431577658
 22  10        19.6321979303       808.6722426555     36964.4264351665         6.5887312914         7.2430035349
 22  11        19.6098468869       807.7559478138     36930.7512248097         6.5891125792         7.2431577658
 22  12        19.6321979303       808.6722426555     36964.4264351661         6.5887312914         7.2430035349
 22  13        19.5488586238       804.4622433048     36816.6858199517         6.5892047858         7.2431950633
 22  14        19.5286180750       803.8587910279     36801.6228559314         6.5902388576         7.2436133454
 22  15        19.5488586238       804.4622433048     36816.6858199525         6.5892047858         7.2431950633
 22  16        19.5286180750       803.8587910279     36801.6228559318         6.5902388576         7.2436133454
 22  17        19.5888868062       805.6287672421     36760.4928643423         6.5832530768         7.2407875971
 22  18        19.5890919930       805.6633654747     36762.8871863416         6.5833427385         7.2408238652
 22  19        19.5888868062       805.6287672421     36760.4928643437         6.5832530768         7.2407875971
 22  20        19.5890919930       805.6633654747     36762.8871863415         6.5833427385         7.2408238652
 22  21        19.5287999298       790.4288301345     35873.1269542638         6.5485024569         7.2267309713
 22  22        19.5168759493       790.2748461661     35883.2175367495         6.5499648420         7.2273225061
 23   1        19.5588091491       804.4979837605     36654.1740875275         6.5809696386         7.2398639463
 23   2        19.5701066550       804.8280329629     36662.2987628324         6.5803836626         7.2396269190
 23   3        19.5588091491       804.4979837605     36654.1740875268         6.5809696386         7.2398639463
 23   4        19.5701066550       804.8280329629     36662.2987628318         6.5803836626         7.2396269190
 23   5        19.6279658779       806.8640059417     36735.2063417754         6.5787923189         7.2389832205
 23   6        19.6363869339       807.2048833757     36753.4804838453         6.5789070844         7.2390296431
 23   7        19.6279658779       806.8640059417     36735.2063417760         6.5787923189         7.2389832205
 23   8        19.6363869339       807.2048833756     36753.4804838443         6.5789070844         7.2390296431
 23   9        19.6221362444       807.9317509745     36921.2973546179         6.5876571321         7.2425690374
 23  10        19.6445106177       808.8486273085     36954.9741894287         6.5872756019         7.2424147084
 23  11        19.6221362444       807.9317509745     36921.2973546180         6.5876571321         7.2425690374
 23  12        19.6445106177       808.8486273085     36954.9741894283         6.5872756019         7.2424147084
 23  13        19.5610721102       804.6354612098     36807.2155841668         6.5877504577         7.2426067876
 23  14        19.5408082433       804.0315338256     36792.1495186116         6.5887848912         7.2430252160
 23  15        19.5610721102       804.6354612098     36807.2155841676         6.5877504577         7.2426067876
 23  16        19.5408082433       804.0315338256     36792.1495186120         6.5887848912         7.2430252160
 23  17        19.6010890224       805.8005481041     36750.8681301406         6.5817955203         7.2401980155
 23  18        19.6012906773       805.8350139723     36753.2559178938         6.5818852050         7.2402342929
 23  19        19.6010890224       805.8005481041     36750.8681301420         6.5817955203         7.2401980155
 23  20        19.6012906773       805.8350139723     36753.2559178936         6.5818852050         7.2402342929
 23  21        19.5407379712       790.5829814149     35863.0334262118         6.5470395627         7.2261392306
 23  22        19.5287999298       790.4288301345     35873.1269542639         6.5485024569         7.2267309713
 23  23        19.5407379712       790.5829814149     35863.0334262120         6.5470395627         7.2261392306
 24   1        19.5465104020       804.3212470656     36663.5721554715         6.5824283246         7.2404539848
 24   2        19.5577956340       804.6510661469     36671.6965404056         6.5818425486         7.2402170384
 24   3        19.5465104020       804.3212470656     36663.5721554709         6.5824283246         7.2404539848
 24   4        19.5577956340       804.6510661469     36671.6965404051         6.5818425486         7.2402170384
 24   5        19.6156702056       806.6888600672     36744.7403690474         6.5802517794         7.2395735723
 24   6        19.6240821552       807.0295081232     36763.0096836731         6.5803664628         7.2396199617
 24   7        19.6156702056       806.6888600672     36744.7403690480         6.5802517794         7.2395735723
 24   8        19.6240821552       807.0295081232     36763.0096836721         6.5803664628         7.2396199617
 24   9        19.6098468869       807.7559478138     36930.7512248093         6.5891125792         7.2431577658
 24  10        19.6321979303       808.6722426555     36964.4264351662         6.5887312914         7.2430035349
 24  11        19.6098468869       807.7559478138     36930.7512248094         6.5891125792         7.2431577658
 24  12        19.6321979303       808.6722426555     36964.4264351658         6.5887312914         7.2430035349
 24  13        19.5488586238       804.4622433048     36816.6858199515         6.5892047858         7.2431950633
 24  14        19.5286180750       803.8587910279     36801.6228559311         6.5902388576         7.2436133454
 24  15        19.5488586238       804.4622433048     36816.6858199523         6.5892047858         7.2431950633
 24  16        19.5286180750       803.8587910279     36801.6228559315         6.5902388576         7.2436133454
 24  17        19.5888868062       805.6287672421     36760.4928643420         6.5832530768         7.2407875971
 24  18        19.5890919930       805.6633654747     36762.8871863414         6.5833427385         7.2408238652
 24  19        19.5888868062       805.6287672421     36760.4928643434         6.5832530768         7.2407875971
 24  20        19.5890919930       805.6633654747     36762.8871863412         6.5833427385         7.2408238652
 24  21        19.5287999298       790.4288301345     35873.1269542635         6.5485024569         7.2267309713
 24  22        19.5168759493       790.2748461661     35883.2175367492         6.5499648420         7.2273225061
 24  23        19.5287999298       790.4288301345     35873.1269542636         6.5485024569         7.2267309713
[...]
  Fvdw (85) =  -2.886353875633E-04  -1.934278897686E-05   1.470399507854E-05  Hartree/bohr
            =  -5.772707751267E-04  -3.868557795372E-05   2.940799015709E-05  Ry/bohr
  Fvdw (86) =   2.945062140286E-04  -2.126817741210E-05  -1.643467196754E-05  Hartree/bohr
            =   5.890124280573E-04  -4.253635482420E-05  -3.286934393509E-05  Ry/bohr
  Fvdw (87) =   2.886353875630E-04   1.934278897711E-05  -1.470399507864E-05  Hartree/bohr
            =   5.772707751261E-04   3.868557795421E-05  -2.940799015728E-05  Ry/bohr
  Fvdw (88) =  -2.945062140295E-04   2.126817741228E-05   1.643467196774E-05  Hartree/bohr
            =  -5.890124280590E-04   4.253635482455E-05   3.286934393548E-05  Ry/bohr
  Fvdw (89) =  -7.754178981390E-04   4.333105161768E-04  -3.897149678171E-04  Hartree/bohr
            =  -1.550835796278E-03   8.666210323535E-04  -7.794299356341E-04  Ry/bohr
  Fvdw (90) =   7.826357239902E-04   4.339518117234E-04   3.841817046561E-04  Hartree/bohr
            =   1.565271447980E-03   8.679036234467E-04   7.683634093123E-04  Ry/bohr
  Fvdw (91) =   7.754178981377E-04  -4.333105161758E-04   3.897149678192E-04  Hartree/bohr
            =   1.550835796275E-03  -8.666210323515E-04   7.794299356384E-04  Ry/bohr
  Fvdw (92) =  -7.826357239865E-04  -4.339518117207E-04  -3.841817046582E-04  Hartree/bohr
            =  -1.565271447973E-03  -8.679036234414E-04  -7.683634093163E-04  Ry/bohr
  sigma_vdw (Hy/bohr**3) =  -1.359375829761E-05  -5.082646447729E-10   4.390464719796E-07  
                            -5.082646447729E-10  -1.808440548268E-05  -2.744339838466E-09  
                             4.390464719796E-07  -2.744339838466E-09  -2.044359111885E-05  
  sigma_vdw (Ry/bohr**3) =  -2.718751659523E-05  -1.016529289546E-09   8.780929439592E-07  
                            -1.016529289546E-09  -3.616881096536E-05  -5.488679676931E-09  
                             8.780929439592E-07  -5.488679676931E-09  -4.088718223771E-05  
  sigma_vdw (GPa) =  -3.999421097372E-01  -1.495365960501E-05   1.291719099545E-02  
                     -1.495365960501E-05  -5.320614890847E-01  -8.074125203657E-05  
                      1.291719099545E-02  -8.074125203657E-05  -6.014711151746E-01  
 
 TIME (final):      687.3

!    total energy              =   -4481.83421468 Ry
     Harris-Foulkes estimate   =   -4481.83421467 Ry
     estimated scf accuracy    <          5.8E-09 Ry

     total all-electron energy =    -49443.718001 Ry

     The total energy is the sum of the following terms:

     one-electron contribution =   -2837.40774586 Ry
     hartree contribution      =    1599.52995647 Ry
     xc contribution           =    -641.85661238 Ry
     ewald contribution        =    -494.10941735 Ry
     Dispersion XDM Correction =      -0.49982227 Ry
     Uncorrected (XDM) energy  =   -4481.33439241 Ry
     one-center paw contrib.   =   -2107.49057330 Ry

     convergence has been achieved in  51 iterations

     Forces acting on atoms (Ry/au):

     atom    1 type  1   force =     0.00509264   -0.00226854   -0.00032789
     atom    2 type  1   force =    -0.00391011   -0.00290489    0.00166515
     atom    3 type  1   force =    -0.00509264    0.00226854    0.00032789
     atom    4 type  1   force =     0.00391011    0.00290489   -0.00166515
     atom    5 type  1   force =     0.00007414   -0.00164927   -0.00307818
     atom    6 type  1   force =    -0.00036881   -0.00230603    0.00458433
     atom    7 type  1   force =    -0.00007414    0.00164927    0.00307818
     atom    8 type  1   force =     0.00036881    0.00230603   -0.00458433
     atom    9 type  1   force =     0.00105172   -0.00170805   -0.00025553
     atom   10 type  1   force =    -0.00158023   -0.00143812   -0.00121068
     atom   11 type  1   force =    -0.00105172    0.00170805    0.00025553
     atom   12 type  1   force =     0.00158023    0.00143812    0.00121068
     atom   13 type  1   force =     0.00328892   -0.00051012   -0.00236114
     atom   14 type  1   force =    -0.00313287   -0.00053555    0.00172587
     atom   15 type  1   force =    -0.00328892    0.00051012    0.00236114
     atom   16 type  1   force =     0.00313287    0.00053555   -0.00172587
     atom   17 type  1   force =     0.00074052    0.00013406    0.00045321
     atom   18 type  1   force =    -0.00094135    0.00100747    0.00026827
     atom   19 type  1   force =    -0.00074052   -0.00013406   -0.00045321
     atom   20 type  1   force =     0.00094135   -0.00100747   -0.00026827
     atom   21 type  1   force =    -0.00111061    0.00325220   -0.00283689
     atom   22 type  1   force =     0.00102600    0.00275634    0.00311588
     atom   23 type  1   force =     0.00111061   -0.00325220    0.00283689
     atom   24 type  1   force =    -0.00102600   -0.00275634   -0.00311588
     atom   25 type  1   force =     0.00105195   -0.00068628   -0.00063575
     atom   26 type  1   force =    -0.00055608   -0.00042204    0.00081122
     atom   27 type  1   force =    -0.00105195    0.00068628    0.00063575
     atom   28 type  1   force =     0.00055608    0.00042204   -0.00081122
     atom   29 type  1   force =     0.00104831    0.00072778   -0.00383527
     atom   30 type  1   force =    -0.00108562    0.00067302    0.00219642
     atom   31 type  1   force =    -0.00104831   -0.00072778    0.00383527
     atom   32 type  1   force =     0.00108562   -0.00067302   -0.00219642
     atom   33 type  1   force =    -0.00231525   -0.00032759   -0.00168495
     atom   34 type  1   force =     0.00177231    0.00023501    0.00140878
     atom   35 type  1   force =     0.00231525    0.00032759    0.00168495
     atom   36 type  1   force =    -0.00177231   -0.00023501   -0.00140878
     atom   37 type  1   force =     0.00065669    0.00231595   -0.00407343
     atom   38 type  1   force =     0.00003908    0.00224581    0.00266390
     atom   39 type  1   force =    -0.00065669   -0.00231595    0.00407343
     atom   40 type  1   force =    -0.00003908   -0.00224581   -0.00266390
     atom   41 type  1   force =    -0.00087692   -0.00197175   -0.00195269
     atom   42 type  1   force =    -0.00012376   -0.00125580    0.00064548
     atom   43 type  1   force =     0.00087692    0.00197175    0.00195269
     atom   44 type  1   force =     0.00012376    0.00125580   -0.00064548
     atom   45 type  1   force =    -0.00234043   -0.00084531   -0.00161704
     atom   46 type  1   force =     0.00222199   -0.00061894    0.00095326
     atom   47 type  1   force =     0.00234043    0.00084531    0.00161704
     atom   48 type  1   force =    -0.00222199    0.00061894   -0.00095326
     atom   49 type  4   force =    -0.00337744    0.00349337    0.00091122
     atom   50 type  4   force =     0.00437454    0.00258841    0.00142670
     atom   51 type  4   force =     0.00337744   -0.00349337   -0.00091122
     atom   52 type  4   force =    -0.00437454   -0.00258841   -0.00142670
     atom   53 type  4   force =     0.00338699    0.00003998    0.00355595
     atom   54 type  4   force =    -0.00061585   -0.00080288   -0.00262211
     atom   55 type  4   force =    -0.00338699   -0.00003998   -0.00355595
     atom   56 type  4   force =     0.00061585    0.00080288    0.00262211
     atom   57 type  2   force =     0.00330660   -0.00095905    0.00330904
     atom   58 type  2   force =    -0.00272996   -0.00004337   -0.00298244
     atom   59 type  2   force =    -0.00330660    0.00095905   -0.00330904
     atom   60 type  2   force =     0.00272996    0.00004337    0.00298244
     atom   61 type  2   force =     0.00200429    0.00128833    0.00260629
     atom   62 type  2   force =    -0.00215797    0.00203312   -0.00296453
     atom   63 type  2   force =    -0.00200429   -0.00128833   -0.00260629
     atom   64 type  2   force =     0.00215797   -0.00203312    0.00296453
     atom   65 type  2   force =     0.00291878   -0.00168706   -0.00149533
     atom   66 type  2   force =    -0.00124539    0.00026419    0.00322403
     atom   67 type  2   force =    -0.00291878    0.00168706    0.00149533
     atom   68 type  2   force =     0.00124539   -0.00026419   -0.00322403
     atom   69 type  2   force =    -0.00549048   -0.00062359    0.00143259
     atom   70 type  2   force =     0.00321269   -0.00114883   -0.00077765
     atom   71 type  2   force =     0.00549048    0.00062359   -0.00143259
     atom   72 type  2   force =    -0.00321269    0.00114883    0.00077765
     atom   73 type  2   force =    -0.00069527   -0.00124897    0.00016823
     atom   74 type  2   force =     0.00014125   -0.00124202   -0.00233852
     atom   75 type  2   force =     0.00069527    0.00124897   -0.00016823
     atom   76 type  2   force =    -0.00014125    0.00124202    0.00233852
     atom   77 type  2   force =    -0.00407505   -0.00048723   -0.00136895
     atom   78 type  2   force =     0.00283185   -0.00149005    0.00051983
     atom   79 type  2   force =     0.00407505    0.00048723    0.00136895
     atom   80 type  2   force =    -0.00283185    0.00149005   -0.00051983
     atom   81 type  2   force =    -0.00724515   -0.00126031    0.00223666
     atom   82 type  2   force =     0.00708208   -0.00161231   -0.00175043
     atom   83 type  2   force =     0.00724515    0.00126031   -0.00223666
     atom   84 type  2   force =    -0.00708208    0.00161231    0.00175043
     atom   85 type  2   force =     0.00229502    0.00194752    0.00301198
     atom   86 type  2   force =    -0.00231492    0.00158978   -0.00277413
     atom   87 type  2   force =    -0.00229502   -0.00194752   -0.00301198
     atom   88 type  2   force =     0.00231492   -0.00158978    0.00277413
     atom   89 type  3   force =    -0.00326438    0.00220765    0.00469302
     atom   90 type  3   force =     0.00232169    0.00178704   -0.00417821
     atom   91 type  3   force =     0.00326438   -0.00220765   -0.00469302
     atom   92 type  3   force =    -0.00232169   -0.00178704    0.00417821

     Total force =     0.038759     Total SCF correction =     0.000183

     Total XDM Dispersion Force =     0.009730

     XDM Dispersion forces acting on atoms:
     atom    1 type  1   force =     0.00095284    0.00013119   -0.00004880
     atom    2 type  1   force =    -0.00096167    0.00012338    0.00004871
     atom    3 type  1   force =    -0.00095284   -0.00013119    0.00004880
     atom    4 type  1   force =     0.00096167   -0.00012338   -0.00004871
     atom    5 type  1   force =     0.00121762   -0.00009142   -0.00017830
     atom    6 type  1   force =    -0.00122397   -0.00009726    0.00017736
     atom    7 type  1   force =    -0.00121762    0.00009142    0.00017830
     atom    8 type  1   force =     0.00122397    0.00009726   -0.00017736
     atom    9 type  1   force =     0.00103384    0.00033265    0.00019993
     atom   10 type  1   force =    -0.00104286    0.00031809   -0.00019512
     atom   11 type  1   force =    -0.00103384   -0.00033265   -0.00019993
     atom   12 type  1   force =     0.00104286   -0.00031809    0.00019512
     atom   13 type  1   force =     0.00000333   -0.00010545   -0.00003635
     atom   14 type  1   force =    -0.00000898   -0.00012362    0.00003743
     atom   15 type  1   force =    -0.00000333    0.00010545    0.00003635
     atom   16 type  1   force =     0.00000898    0.00012362   -0.00003743
     atom   17 type  1   force =     0.00037931   -0.00069392   -0.00016529
     atom   18 type  1   force =    -0.00038135   -0.00070374    0.00017232
     atom   19 type  1   force =    -0.00037931    0.00069392    0.00016529
     atom   20 type  1   force =     0.00038135    0.00070374   -0.00017232
     atom   21 type  1   force =     0.00068881   -0.00007525    0.00005758
     atom   22 type  1   force =    -0.00069031   -0.00008027   -0.00005833
     atom   23 type  1   force =    -0.00068881    0.00007525   -0.00005758
     atom   24 type  1   force =     0.00069031    0.00008027    0.00005833
     atom   25 type  1   force =    -0.00064953   -0.00055878    0.00029820
     atom   26 type  1   force =     0.00064259   -0.00056865   -0.00030312
     atom   27 type  1   force =     0.00064953    0.00055878   -0.00029820
     atom   28 type  1   force =    -0.00064259    0.00056865    0.00030312
     atom   29 type  1   force =     0.00063521    0.00056430    0.00005182
     atom   30 type  1   force =    -0.00063962    0.00055291   -0.00004862
     atom   31 type  1   force =    -0.00063521   -0.00056430   -0.00005182
     atom   32 type  1   force =     0.00063962   -0.00055291    0.00004862
     atom   33 type  1   force =     0.00005235   -0.00053988    0.00007471
     atom   34 type  1   force =    -0.00004924   -0.00053946   -0.00006587
     atom   35 type  1   force =    -0.00005235    0.00053988   -0.00007471
     atom   36 type  1   force =     0.00004924    0.00053946    0.00006587
     atom   37 type  1   force =     0.00020645    0.00044575    0.00026420
     atom   38 type  1   force =    -0.00020461    0.00043614   -0.00026701
     atom   39 type  1   force =    -0.00020645   -0.00044575   -0.00026420
     atom   40 type  1   force =     0.00020461   -0.00043614    0.00026701
     atom   41 type  1   force =    -0.00101645   -0.00059273    0.00005924
     atom   42 type  1   force =     0.00101840   -0.00060501   -0.00006284
     atom   43 type  1   force =     0.00101645    0.00059273   -0.00005924
     atom   44 type  1   force =    -0.00101840    0.00060501    0.00006284
     atom   45 type  1   force =    -0.00076906   -0.00027148    0.00029227
     atom   46 type  1   force =     0.00076876   -0.00027859   -0.00029442
     atom   47 type  1   force =     0.00076906    0.00027148   -0.00029227
     atom   48 type  1   force =    -0.00076876    0.00027859    0.00029442
     atom   49 type  4   force =     0.00100127   -0.00066529   -0.00135549
     atom   50 type  4   force =    -0.00098272   -0.00066749    0.00136293
     atom   51 type  4   force =    -0.00100127    0.00066529    0.00135549
     atom   52 type  4   force =     0.00098272    0.00066749   -0.00136293
     atom   53 type  4   force =    -0.00194267    0.00098137    0.00071985
     atom   54 type  4   force =     0.00196127    0.00096490   -0.00072600
     atom   55 type  4   force =     0.00194267   -0.00098137   -0.00071985
     atom   56 type  4   force =    -0.00196127   -0.00096490    0.00072600
     atom   57 type  2   force =     0.00039943    0.00002163   -0.00000059
     atom   58 type  2   force =    -0.00040425    0.00002134    0.00000246
     atom   59 type  2   force =    -0.00039943   -0.00002163    0.00000059
     atom   60 type  2   force =     0.00040425   -0.00002134   -0.00000246
     atom   61 type  2   force =     0.00048761   -0.00021290   -0.00006955
     atom   62 type  2   force =    -0.00049386   -0.00021933    0.00007267
     atom   63 type  2   force =    -0.00048761    0.00021290    0.00006955
     atom   64 type  2   force =     0.00049386    0.00021933   -0.00007267
     atom   65 type  2   force =     0.00022574    0.00046379   -0.00007542
     atom   66 type  2   force =    -0.00022827    0.00045791    0.00007868
     atom   67 type  2   force =    -0.00022574   -0.00046379    0.00007542
     atom   68 type  2   force =     0.00022827   -0.00045791   -0.00007868
     atom   69 type  2   force =     0.00054454    0.00024518    0.00012538
     atom   70 type  2   force =    -0.00055173    0.00023976   -0.00012564
     atom   71 type  2   force =    -0.00054454   -0.00024518   -0.00012538
     atom   72 type  2   force =     0.00055173   -0.00023976    0.00012564
     atom   73 type  2   force =     0.00055573   -0.00011459   -0.00004663
     atom   74 type  2   force =    -0.00056082   -0.00012217    0.00005200
     atom   75 type  2   force =    -0.00055573    0.00011459    0.00004663
     atom   76 type  2   force =     0.00056082    0.00012217   -0.00005200
     atom   77 type  2   force =    -0.00056812   -0.00008212    0.00015592
     atom   78 type  2   force =     0.00056616   -0.00008325   -0.00016497
     atom   79 type  2   force =     0.00056812    0.00008212   -0.00015592
     atom   80 type  2   force =    -0.00056616    0.00008325    0.00016497
     atom   81 type  2   force =    -0.00013900    0.00019255    0.00001908
     atom   82 type  2   force =     0.00014006    0.00019632   -0.00001877
     atom   83 type  2   force =     0.00013900   -0.00019255   -0.00001908
     atom   84 type  2   force =    -0.00014006   -0.00019632    0.00001877
     atom   85 type  2   force =    -0.00057727   -0.00003869    0.00002941
     atom   86 type  2   force =     0.00058901   -0.00004254   -0.00003287
     atom   87 type  2   force =     0.00057727    0.00003869   -0.00002941
     atom   88 type  2   force =    -0.00058901    0.00004254    0.00003287
     atom   89 type  3   force =    -0.00155084    0.00086662   -0.00077943
     atom   90 type  3   force =     0.00156527    0.00086790    0.00076836
     atom   91 type  3   force =     0.00155084   -0.00086662    0.00077943
     atom   92 type  3   force =    -0.00156527   -0.00086790   -0.00076836


     entering subroutine stress ...

          total   stress  (Ry/bohr**3)                   (kbar)     P=   -5.45
  -0.00005535   0.00000115  -0.00000174         -8.14      0.17     -0.26
   0.00000115  -0.00002188  -0.00000075          0.17     -3.22     -0.11
  -0.00000174  -0.00000075  -0.00003383         -0.26     -0.11     -4.98


     Writing output data file fepxas.save
 
     init_run     :    134.18s CPU    136.73s WALL (       2 calls)
     electrons    : 140547.22s CPU 143261.00s WALL (      51 calls)
     update_pot   :   2313.76s CPU   2339.54s WALL (      49 calls)
     forces       :   3841.81s CPU   3902.29s WALL (      51 calls)
     stress       :  11455.82s CPU  11908.76s WALL (      51 calls)

     Called by init_run:
     wfcinit      :     40.35s CPU     41.25s WALL (       2 calls)
     potinit      :     28.21s CPU     28.73s WALL (       2 calls)

     Called by electrons:
     c_bands      :  68943.27s CPU  70222.87s WALL (    1473 calls)
     sum_band     :  44603.62s CPU  45272.78s WALL (    1473 calls)
     v_of_rho     :   2191.69s CPU   2205.64s WALL (    1524 calls)
     newd         :  22827.78s CPU  23077.67s WALL (    1524 calls)
     mix_rho      :   1000.03s CPU   1058.36s WALL (    1473 calls)

     Called by c_bands:
     init_us_2    :    313.80s CPU    313.97s WALL (    2948 calls)
     cegterg      :  68221.10s CPU  69500.58s WALL (    1473 calls)

     Called by *egterg:
     h_psi        :  42977.93s CPU  43716.28s WALL (    7478 calls)
     s_psi        :   6345.85s CPU   6346.84s WALL (    7478 calls)
     g_psi        :    176.27s CPU    176.30s WALL (    6003 calls)
     cdiaghg      :   3623.78s CPU   3628.29s WALL (    7427 calls)

     Called by h_psi:
     add_vuspsi   :   6355.75s CPU   6356.77s WALL (    7478 calls)

     General routines
     calbec       :   8349.74s CPU   8501.11s WALL (    9053 calls)
     fft          :   1796.46s CPU   2146.49s WALL (   44981 calls)
     ffts         :    116.43s CPU    118.36s WALL (    5994 calls)
     fftw         :  43609.17s CPU  44557.52s WALL ( 3351734 calls)
     interpolate  :    401.52s CPU    406.21s WALL (    5994 calls)
     davcio       :      0.02s CPU    249.69s WALL (    1473 calls)
 
     Parallel routines
     fft_scatter  :   8986.42s CPU  10277.20s WALL ( 3402709 calls)
 
     PAW routines
     PAW_pot      :    670.08s CPU    781.74s WALL (    1524 calls)
     PAW_ddot     :    415.46s CPU    464.60s WALL (   51801 calls)
     PAW_symme    :      0.28s CPU      0.65s WALL (    2948 calls)
 
     PWSCF        :     1d   20h11m CPU        1d   21h 6m WALL

 
   This run was terminated on:  16:43:25  18Oct2012            

=------------------------------------------------------------------------------=
   JOB DONE.
=------------------------------------------------------------------------------=
