216
co2_17.log	Energy: -3593042.6433275
C          3.42397        0.01152       -0.07786
C         -2.98348        0.00673       -0.10139
O         -4.31476        3.28279       -5.41017
O         -9.33110       -1.97937        1.89457
O         -7.02959       -3.71645       -4.51314
O         -5.59709       -3.01131       -0.16029
O         -6.04657        0.18488       -3.05643
O         -7.28713       -5.12990       -0.20943
O         -5.37466       -2.43169       -2.79841
O         -7.72211        0.55056       -5.17924
O         -2.83871       -2.52413       -3.69575
O         -3.86286        1.74022       -3.23944
O         -1.87096       -0.01509       -3.75766
O         -4.09223        6.21571       -2.29303
O         -3.66767        3.69893       -1.36028
O         -0.74028        6.51831        0.43920
O         -7.35467        0.94069       -0.82088
O         -6.96207       -1.02159        1.01123
O         -6.82637        3.83535        4.34479
O         -5.94952        3.13375       -0.00212
O         -5.49278       -0.00879        3.03784
O         -7.47767        5.34782        0.23038
O         -7.04519       -0.17554        5.28274
O         -5.23028        2.63559        2.51985
O          6.19861        2.00043       -1.85468
O          4.61303       -1.66958       -6.11446
O          2.40637        0.78234       -3.24584
O          6.18017       -0.66804       -2.28267
O          8.24258       -1.15009       -3.95867
O          1.59488        1.35472       -5.76504
O          3.91615       -1.43696       -3.52217
O         -0.95250        0.55703       -6.22273
O          0.68604       -2.03111        1.67839
O          2.07946       -5.87659       -2.90609
O         -0.59813       -6.08719       -2.48626
O         -3.16029       -3.92561        0.60274
O          4.44835       -3.76596        0.07107
O          0.52564       -2.23557       -1.00562
O         -3.43990       -6.57592        1.11170
O         -1.62244       -3.75438       -1.62972
O          5.12026       -6.38252        0.32909
O          2.77281       -3.40028       -2.05175
O          0.08802        0.28436       -1.93265
O          6.63206       -2.21061       -0.11195
O          8.62396       -3.96592       -0.63017
O          3.21188       -1.13419       -0.17681
O         -3.08643       -0.92151       -0.80791
O          3.74367        2.99593       -2.43811
O          8.56764        2.95822       -2.73802
O          3.35413        5.00374       -4.23384
O          4.81625        5.88221        2.74347
O          2.49222        3.83775       -0.19433
O          6.40269        2.26488        0.83447
O          4.16218        3.39400        1.90288
O          8.48452        3.80427        1.53349
O          1.80131        6.43490       -0.44419
O          6.82725       -0.25190        1.76721
O         -1.70113        3.97222        0.47759
O          3.14026       -3.01014        2.30662
O         -1.29112       -4.93471        4.43863
O          3.53285       -4.97242        4.13873
O         -1.68065       -2.92691        2.64291
O          2.28268        1.67521        5.95184
O         -0.39491        1.46460        6.37167
O          4.54541       -0.81708        3.12538
O          0.71861        0.64283        2.16712
O         -3.01676       -0.87476        3.79197
O          3.01726        1.39699        3.35788
O         -3.23347       -1.49575        6.43256
O         -1.33799        1.23412        3.80581
O          5.26464       -1.31524        5.64735
O          0.29960        2.20354       -0.01594
O         -2.65861        3.46920        2.94684
O          3.63791        1.15661        0.02586
O         -2.88399        0.93294        0.60856
O          8.79380        0.02139        3.60509
H         -5.15249        2.94680       -5.84183
H         -4.15390        2.69864       -4.61350
H         -1.42047        1.38689       -6.52370
H         -1.53727        0.20872       -4.67487
H         -2.59466        0.64418       -3.56437
H         -6.56859        0.42548       -2.23873
H        -10.19886       -1.57872        1.60415
H         -7.85028       -1.37487        1.30012
H         -9.39755       -2.96287        1.73334
H         -6.46037       -1.77841        0.59199
H         -7.57313       -3.06428       -5.03573
H         -7.95982       -0.35697       -5.51715
H         -5.97518       -2.90792       -3.43923
H         -6.45375       -4.18341       -5.18483
H         -4.69941       -3.28777        0.17843
H         -6.64731       -4.36640       -0.13198
H         -5.47612       -2.80137       -1.12855
H         -5.80096       -0.77616       -2.95014
H         -7.10262        0.39916       -4.40927
H         -4.68881        1.19056       -3.09477
H         -8.04138       -4.93304        0.41694
H         -4.44786       -2.48207       -3.16950
H         -3.76984        2.39544       -2.49754
H         -2.47692       -1.59398       -3.78938
H         -4.21562        6.15041       -3.28308
H         -4.93548        6.60373       -1.92008
H         -3.81567        4.62362       -1.70726
H         -1.24972        6.99820       -0.27586
H         -2.93330        3.77957       -0.68528
H         -0.77324        7.09232        1.25857
H         -7.24608        0.23858       -0.11993
H         -6.83239        1.73028       -0.50734
H         -6.03748       -0.41750        2.30598
H         -7.36991        4.48752        3.82219
H         -6.25053        3.36838        3.67310
H         -7.42485        0.69940        5.58516
H         -6.84340        4.57906        0.14132
H         -5.65891        2.94211        0.93977
H         -5.10176        3.32560       -0.49539
H         -7.83150       -0.74015        5.02318
H         -6.05334       -0.06826        3.86037
H         -5.26851        1.65371        2.70495
H         -7.05427        6.12218       -0.23590
H         -4.28580        2.91930        2.68359
H          5.33085        2.40109       -2.14510
H          7.67943        2.60494       -2.44912
H          6.13216        1.01694       -2.01591
H          2.86882        1.60316       -2.91049
H          9.06934        2.20140       -3.15726
H          5.59208       -1.52273       -6.22902
H          4.39307       -1.57831       -5.14456
H          2.21802        0.91663       -6.40979
H          8.88240       -0.38659       -3.88123
H          1.91888        1.12147       -4.85120
H          3.31166       -0.65133       -3.40247
H          1.55845        0.65560       -2.73387
H          7.48833       -0.95323       -3.33230
H          5.34244       -1.00404       -2.71434
H          6.34102       -1.25219       -1.48601
H         -0.00508        0.83966       -6.06071
H          3.48678       -2.20483       -3.04803
H          8.95766       -3.74212       -1.54737
H          7.90026       -3.30666       -0.43687
H          1.54413       -2.44306        1.98068
H          0.66912       -2.13593        0.68334
H          3.92633       -3.52535        0.88877
H          2.64465       -5.32570        4.42762
H          4.03456       -5.72925        3.71949
H         -2.62263       -3.53783        1.34897
H          1.09677       -5.99023       -2.78141
H          2.53511       -4.30780       -2.38965
H          2.29588       -5.97938       -3.87437
H          4.51974       -6.85875       -0.31173
H         -0.92711       -6.77120       -1.83819
H         -0.97655       -5.22402       -2.15101
H         -2.81676       -7.01402        0.46696
H         -3.26625       -4.89739        0.81674
H         -2.22718       -3.79743       -0.83334
H          4.69396       -4.72699        0.17736
H          3.39231       -3.55168       -1.28177
H          5.80612       -2.76028        0.03273
H         -0.25330       -2.80924       -1.25328
H          1.33757       -2.66224       -1.40177
H          0.23625       -0.64333       -1.59245
H         -3.11591       -6.80917        2.02554
H         -2.10664       -3.28512       -2.36738
H          6.04706       -6.43291       -0.04200
H          6.72509       -1.55540        0.62996
H         -2.77779       -2.99470       -4.57287
H         -0.63940        0.20201       -2.61813
H          4.24058        5.33556       -4.55133
H          6.27930        2.19957       -0.15558
H          3.63434        3.72424       -3.11113
H          3.31074        3.33168       -1.60196
H          2.87317        5.77847       -3.82713
H          5.79530        6.02907        2.62891
H          4.59629        5.97349        3.71337
H          4.40470        4.29819        2.24971
H          8.10486        4.67920        1.83591
H          3.51959        3.56173        1.15677
H          2.18401        4.78291       -0.28722
H          1.67959        3.26465       -0.14137
H          5.55945        2.65289        1.20742
H          7.69821        3.23966        1.27393
H          6.67926        0.67279        1.42024
H          1.83453        6.67049       -1.41487
H          0.84558        6.49251       -0.15317
H          7.56163       -0.17126        2.44222
H         -0.95638        3.33637        0.28730
H         -1.31825        4.89180        0.46223
H         -0.79420       -2.59509        2.32542
H          0.75435       -0.34203        2.00057
H          3.24885       -3.71226        3.00757
H          3.66254       -2.22056        2.62016
H         -1.40044       -4.20640        3.76562
H         -1.72404       -4.59897        5.27479
H         -2.16161       -2.15218        3.04962
H          1.29998        1.56157        6.07652
H          2.49910        1.57242        4.98356
H         -0.72389        0.78059        7.01973
H         -0.77334        2.32777        6.70692
H         -0.99593        1.30291        4.73818
H          3.65152        0.62822        3.26882
H          4.83602       -1.00873        4.06727
H          5.39317       -0.62524        2.63211
H          1.58791        0.91079        2.58389
H         -0.55203        1.02535        3.22487
H          0.43994        1.64400        0.79842
H         -3.91357       -0.60930        3.44811
H         -3.20025       -1.26015        5.46187
H         -2.44336       -0.05574        3.75672
H          5.22641       -2.29712        5.83245
H          3.44066        2.17134        2.89159
H         -4.18920       -1.43814        6.72357
H         -2.16040        2.66192        3.25472
H          6.20913       -1.03154        5.81109
H          0.14940        1.54261       -0.74544
H         -2.28411        3.68203        2.04382
H          9.53855       -0.61447        3.41480
H          9.17668        0.94097        3.58973
