63
co2p.120_30.log	Energy: -1077895.2257056
O         -0.94366        3.14847       -1.67826
O          0.25070       -0.48786       -3.61777
O          3.60333       -0.90100       -0.92357
O          2.34245        2.76238        1.07068
O         -3.55949        0.90935        0.92431
O         -2.28717       -2.76488       -1.03315
O          0.98327       -3.10203        1.70905
O         -0.23933        0.47624        3.63876
H         -0.71128       -0.56627       -3.35136
H         -2.35037       -1.49553       -2.20123
H         -2.34499        2.11711       -1.71492
H         -3.42134        1.10948       -0.04356
H          2.36797        2.01567        1.73333
H          1.41972        0.63504        3.19357
H          3.33944       -1.25915        0.74659
H          1.79050       -2.51030        1.67313
H          0.39039        2.46929       -2.49519
H         -1.20104        4.00709       -2.12407
H         -0.67968        3.39682       -0.74642
H          0.54644        0.43596       -3.37275
H          1.23804       -1.68401       -2.87907
H          3.35647        0.79161       -1.19729
H          4.52658       -1.18334       -1.18403
H          2.97470       -1.44450       -1.47272
H          2.64174        2.37002        0.20033
H          0.75346        3.39504        0.95338
H         -4.50260        1.16495        1.13443
H         -3.33335       -0.79592        1.20704
H         -2.47389        1.83483        1.84514
H         -2.91684       -3.49446       -1.30060
H         -2.62046       -2.41425       -0.15974
H         -0.72035       -3.42646       -0.89464
H         -0.36343       -2.43647        2.53014
H          0.74570       -3.33901        0.76688
H         -0.59324       -0.43240        3.41488
H         -0.83826        1.13723        3.18570
C          0.01962       -0.00114        0.01377
O         -1.13512       -0.17634       -0.14093
O          1.17434        0.17399        0.16852
O         -2.34323       -0.81716       -2.93495
O         -3.12907        1.50201       -1.71831
O          2.37799        0.80107        2.97211
O          3.16674       -1.49920        1.70127
O          1.10204        2.01045       -3.02763
O          1.85441       -2.34522       -2.45507
O          3.20316        1.77165       -1.31607
O         -0.17375        3.75435        0.85244
O         -3.18386       -1.77098        1.35913
O         -1.84509        2.31056        2.46373
O          0.21430       -3.77164       -0.79844
O         -1.09389       -2.02606        3.07393
H         -2.69973        0.02481       -2.53578
H         -3.90608        2.05498       -2.01359
H          2.71763       -0.04551        2.56943
H          3.96142       -2.03212        1.98612
H         -4.08622       -2.15917        1.53388
H          4.10382        2.16516       -1.48958
H         -1.90282       -1.99518        2.48841
H          1.91515        1.98161       -2.44857
H         -1.28484        2.91132        1.90005
H         -0.08389        4.74740        0.91418
H          1.27453       -2.94306       -1.90763
H          0.14083       -4.76666       -0.84461
