
     Program PWSCF v.4.3.2      starts on 18Jun2013 at 10:47:19 

     This program is part of the open-source Quantum ESPRESSO suite
     for quantum simulation of materials; please cite
         "P. Giannozzi et al., J. Phys.:Condens. Matter 21 395502 (2009);
          URL http://www.quantum-espresso.org", 
     in publications or presentations arising from this work. More details at
     http://www.quantum-espresso.org/wiki/index.php/Citing_Quantum-ESPRESSO

     Current dimensions of program PWSCF are:
     Max number of different atomic species (ntypx) = 10
     Max number of k-points (npk) =  40000
     Max angular momentum in pseudopotentials (lmaxx) =  3
     Waiting for input...
     Reading input from stdin
               file c.UPF: wavefunction(s)  2P renormalized
               file h.UPF: wavefunction(s)  1S renormalized
               file o.UPF: wavefunction(s)  2P renormalized
               file n.UPF: wavefunction(s)  2P renormalized
 
     G-vector sticks info
     --------------------
     sticks:   dense  smooth     PW     G-vecs:    dense   smooth      PW
     Sum        2801    1405    401               112259    39607    6031
 

     Title: 
     urea                                                                       


     bravais-lattice index     =            0
     lattice parameter (alat)  =       1.0000  a.u.
     unit-cell volume          =    1163.0332 (a.u.)^3
     number of atoms/cell      =           16
     number of atomic types    =            4
     number of electrons       =        48.00
     number of Kohn-Sham states=           24
     kinetic-energy cutoff     =      40.0000  Ry
     charge density cutoff     =     320.0000  Ry
     convergence threshold     =      1.0E-06
     mixing beta               =       0.7000
     number of iterations used =            8  plain     mixing
     Exchange-correlation      =  SLA  PW   PBX  PBC ( 1 4 3 4 0)
     EXX-fraction              =        0.00

     celldm(1)=   1.000000  celldm(2)=   0.000000  celldm(3)=   0.000000
     celldm(4)=   0.000000  celldm(5)=   0.000000  celldm(6)=   0.000000

     crystal axes: (cart. coord. in units of alat)
               a(1) = (  10.516326   0.000000   0.000000 )  
               a(2) = (   0.000000  10.516326   0.000000 )  
               a(3) = (   0.000000   0.000000  10.516326 )  

     reciprocal axes: (cart. coord. in units 2 pi/alat)
               b(1) = (  0.095090  0.000000  0.000000 )  
               b(2) = (  0.000000  0.095090  0.000000 )  
               b(3) = (  0.000000  0.000000  0.095090 )  


     PseudoPot. # 1 for  C read from file:
     ./c.UPF
     MD5 check sum: 8655eec861736babbedc3697f7486e7e
     Pseudo is Projector augmented-wave + core cor, Zval =  4.0
     Generated using "atomic" code by A. Dal Corso  (Quantum ESPRESSO distribution)
     Shape of augmentation charge: BESSEL
     Using radial grid of 1073 points,  4 beta functions with: 
                l(1) =   0
                l(2) =   0
                l(3) =   1
                l(4) =   1
     Q(r) pseudized with 0 coefficients 


     PseudoPot. # 2 for  H read from file:
     ./h.UPF
     MD5 check sum: 8d13869083bfb14f05071ecfe9b1ee8e
     Pseudo is Projector augmented-wave, Zval =  1.0
     Generated using "atomic" code by A. Dal Corso  (Quantum ESPRESSO distribution)
     Shape of augmentation charge: PSQ
     Using radial grid of  929 points,  2 beta functions with: 
                l(1) =   0
                l(2) =   0
     Q(r) pseudized with 0 coefficients 


     PseudoPot. # 3 for  O read from file:
     ./o.UPF
     MD5 check sum: 41b4c06c3d5f255fcb8c86fb23a9ad16
     Pseudo is Projector augmented-wave + core cor, Zval =  6.0
     Generated using "atomic" code by A. Dal Corso  (Quantum ESPRESSO distribution)
     Shape of augmentation charge: BESSEL
     Using radial grid of 1095 points,  4 beta functions with: 
                l(1) =   0
                l(2) =   0
                l(3) =   1
                l(4) =   1
     Q(r) pseudized with 0 coefficients 


     PseudoPot. # 4 for  N read from file:
     ./n.UPF
     MD5 check sum: df71d20f71384a6b5802d935f6bb428a
     Pseudo is Projector augmented-wave + core cor, Zval =  5.0
     Generated using "atomic" code by A. Dal Corso  (Quantum ESPRESSO distribution)
     Shape of augmentation charge: PSQ
     Using radial grid of 1085 points,  4 beta functions with: 
                l(1) =   0
                l(2) =   0
                l(3) =   1
                l(4) =   1
     Q(r) pseudized with 0 coefficients 


     atomic species   valence    mass     pseudopotential
        c              4.00    12.01070      C( 1.00)
        h              1.00     1.00794      H( 1.00)
        o              6.00    15.99940      O( 1.00)
        n              5.00    14.00670      N( 1.00)

      8 Sym.Ops. (no inversion)


   Cartesian axes

     site n.     atom                  positions (alat units)
         1           c   tau(   1) = (   0.0000000   5.2581630   3.4283223  )
         2           c   tau(   2) = (   5.2581630   0.0000000   7.0880037  )
         3           h   tau(   3) = (   2.7079539   7.9661169   2.9729653  )
         4           h   tau(   4) = (   7.9661169   7.8083720   7.5433606  )
         5           h   tau(   5) = (   7.8083720   2.5502090   2.9729653  )
         6           h   tau(   6) = (   2.5502090   2.7079539   7.5433606  )
         7           h   tau(   7) = (   1.5154026   6.7735655  10.1167055  )
         8           h   tau(   8) = (   6.7735655   9.0009234   0.3996204  )
         9           h   tau(   9) = (   9.0009234   3.7427604  10.1167055  )
        10           h   tau(  10) = (   3.7427604   1.5154026   0.3996204  )
        11           o   tau(  11) = (   0.0000000   5.2581630   6.2603688  )
        12           o   tau(  12) = (   5.2581630   0.0000000   4.2559571  )
        13           n   tau(  13) = (   1.5343320   6.7924949   1.8571832  )
        14           n   tau(  14) = (   6.7924949   8.9819940   8.6591428  )
        15           n   tau(  15) = (   8.9819940   3.7238310   1.8571832  )
        16           n   tau(  16) = (   3.7238310   1.5343320   8.6591428  )

     number of k points=     6
                       cart. coord. in units 2pi/alat
        k(    1) = (   0.0118863   0.0118863   0.0118863), wk =   0.2500000
        k(    2) = (   0.0118863   0.0118863   0.0356588), wk =   0.2500000
        k(    3) = (   0.0118863   0.0356588   0.0356588), wk =   0.5000000
        k(    4) = (   0.0356588   0.0356588   0.0356588), wk =   0.2500000
        k(    5) = (   0.0356588  -0.0118863   0.0118863), wk =   0.5000000
        k(    6) = (   0.0356588  -0.0356588   0.0118863), wk =   0.2500000

     Dense  grid:   112259 G-vectors     FFT dimensions: (  60,  60,  60)

     Smooth grid:    39607 G-vectors     FFT dimensions: (  45,  45,  45)

     Largest allocated arrays     est. size (Mb)     dimensions
        Kohn-Sham Wavefunctions         1.82 Mb     (   4980,   24)
        NL pseudopotentials             6.08 Mb     (   4980,   80)
        Each V/rho on FFT grid          3.30 Mb     ( 216000)
        Each G-vector array             0.86 Mb     ( 112259)
        G-vector shells                 0.01 Mb     (    749)
     Largest temporary arrays     est. size (Mb)     dimensions
        Auxiliary wavefunctions         7.29 Mb     (   4980,   96)
        Each subspace H/S matrix        0.14 Mb     (  96,  96)
        Each <psi_i|beta_j> matrix      0.03 Mb     (     80,   24)
        Arrays for rho mixing          26.37 Mb     ( 216000,   8)

     Check: negative/imaginary core charge=   -0.000002    0.000000

     Initial potential from superposition of free atoms

     starting charge   47.99981, renormalised to   48.00000
     Starting wfc are   40 atomic wfcs

     total cpu time spent up to now is        2.7 secs

     per-process dynamical memory:    67.7 Mb

     Self-consistent Calculation

     iteration #  1     ecut=    40.00 Ry     beta=0.70
     Davidson diagonalization with overlap
     ethr =  1.00E-02,  avg # of iterations =  3.0

     total cpu time spent up to now is        5.6 secs

     total energy              =    -241.60295975 Ry
     Harris-Foulkes estimate   =    -242.82410028 Ry
     estimated scf accuracy    <       1.81068428 Ry

     iteration #  2     ecut=    40.00 Ry     beta=0.70
     Davidson diagonalization with overlap
     ethr =  3.77E-03,  avg # of iterations =  5.0

     total cpu time spent up to now is        9.2 secs

     total energy              =    -241.89964035 Ry
     Harris-Foulkes estimate   =    -242.95174730 Ry
     estimated scf accuracy    <       2.29444658 Ry

     iteration #  3     ecut=    40.00 Ry     beta=0.70
     Davidson diagonalization with overlap
     ethr =  3.77E-03,  avg # of iterations =  3.5

     total cpu time spent up to now is       11.9 secs

     total energy              =    -242.26701507 Ry
     Harris-Foulkes estimate   =    -242.33335523 Ry
     estimated scf accuracy    <       0.13065008 Ry

     iteration #  4     ecut=    40.00 Ry     beta=0.70
     Davidson diagonalization with overlap
     ethr =  2.72E-04,  avg # of iterations =  4.2

     total cpu time spent up to now is       15.3 secs

     total energy              =    -242.35954613 Ry
     Harris-Foulkes estimate   =    -242.38568594 Ry
     estimated scf accuracy    <       0.07037487 Ry

     iteration #  5     ecut=    40.00 Ry     beta=0.70
     Davidson diagonalization with overlap
     ethr =  1.47E-04,  avg # of iterations =  3.7

     total cpu time spent up to now is       17.9 secs

     total energy              =    -242.36663966 Ry
     Harris-Foulkes estimate   =    -242.36954148 Ry
     estimated scf accuracy    <       0.00811946 Ry

     iteration #  6     ecut=    40.00 Ry     beta=0.70
     Davidson diagonalization with overlap
     ethr =  1.69E-05,  avg # of iterations =  4.0

     total cpu time spent up to now is       21.2 secs

     total energy              =    -242.36971980 Ry
     Harris-Foulkes estimate   =    -242.36986114 Ry
     estimated scf accuracy    <       0.00039461 Ry

     iteration #  7     ecut=    40.00 Ry     beta=0.70
     Davidson diagonalization with overlap
     ethr =  8.22E-07,  avg # of iterations =  4.2

     total cpu time spent up to now is       24.2 secs

     total energy              =    -242.36980802 Ry
     Harris-Foulkes estimate   =    -242.36983138 Ry
     estimated scf accuracy    <       0.00004583 Ry

     iteration #  8     ecut=    40.00 Ry     beta=0.70
     Davidson diagonalization with overlap
     ethr =  9.55E-08,  avg # of iterations =  4.2

     total cpu time spent up to now is       27.5 secs

     total energy              =    -242.36982498 Ry
     Harris-Foulkes estimate   =    -242.36982941 Ry
     estimated scf accuracy    <       0.00001208 Ry

     iteration #  9     ecut=    40.00 Ry     beta=0.70
     Davidson diagonalization with overlap
     ethr =  2.52E-08,  avg # of iterations =  2.0

     total cpu time spent up to now is       30.1 secs

     total energy              =    -242.36982404 Ry
     Harris-Foulkes estimate   =    -242.36982562 Ry
     estimated scf accuracy    <       0.00000333 Ry

     iteration # 10     ecut=    40.00 Ry     beta=0.70
     Davidson diagonalization with overlap
     ethr =  6.94E-09,  avg # of iterations =  4.0

     total cpu time spent up to now is       33.6 secs

     total energy              =    -242.36982651 Ry
     Harris-Foulkes estimate   =    -242.36982729 Ry
     estimated scf accuracy    <       0.00000289 Ry

     iteration # 11     ecut=    40.00 Ry     beta=0.70
     Davidson diagonalization with overlap
     ethr =  6.01E-09,  avg # of iterations =  1.0

     total cpu time spent up to now is       36.2 secs

     total energy              =    -242.36982616 Ry
     Harris-Foulkes estimate   =    -242.36982657 Ry
     estimated scf accuracy    <       0.00000144 Ry

     iteration # 12     ecut=    40.00 Ry     beta=0.70
     Davidson diagonalization with overlap
     ethr =  2.99E-09,  avg # of iterations =  4.0

     total cpu time spent up to now is       38.9 secs

     End of self-consistent calculation

          k = 0.0119 0.0119 0.0119 (  4980 PWs)   bands (ev):

   -19.0355 -18.8237 -17.0298 -16.8621 -15.7647 -15.7551  -9.9269  -9.3971
    -8.2428  -7.7299  -7.2736  -7.2561  -5.6243  -5.5333  -4.7672  -4.5005
    -4.3098  -4.3074  -1.5021  -1.4260  -1.3745  -1.1826  -1.1082  -0.8007

          k = 0.0119 0.0119 0.0357 (  4967 PWs)   bands (ev):

   -18.9639 -18.8179 -17.1615 -16.9014 -15.7612 -15.7469  -9.6503  -9.4189
    -7.8350  -7.5845  -7.3470  -7.3140  -5.7170  -5.5894  -5.2923  -5.0146
    -4.3264  -4.3136  -1.4424  -1.3804  -1.3018  -1.0503  -1.0223  -0.8449

          k = 0.0119 0.0357 0.0357 (  4979 PWs)   bands (ev):

   -18.9196 -18.8589 -17.0943 -16.9863 -15.7540 -15.7399  -9.5820  -9.4859
    -7.8030  -7.7070  -7.3340  -7.3061  -5.7981  -5.7337  -5.0549  -4.8412
    -4.3817  -4.3512  -1.4647  -1.4286  -1.2050  -1.1339  -0.9704  -0.8383

          k = 0.0357 0.0357 0.0357 (  4938 PWs)   bands (ev):

   -18.9011 -18.8759 -17.0507 -17.0041 -15.7753 -15.7609  -9.5426  -9.5032
    -7.7302  -7.6822  -7.3795  -7.3478  -5.7267  -5.6034  -5.2654  -5.0171
    -4.3797  -4.3699  -1.4084  -1.3736  -1.0997  -1.0801  -0.9183  -0.8347

          k = 0.0357-0.0119 0.0119 (  4967 PWs)   bands (ev):

   -18.9739 -18.8861 -16.9830 -16.9132 -15.7622 -15.7527  -9.7900  -9.5732
    -8.1284  -7.9193  -7.2698  -7.2537  -5.5394  -5.4478  -4.6720  -4.5392
    -4.4065  -4.3528  -1.4540  -1.4120  -1.3433  -1.2747  -1.0344  -0.8361

          k = 0.0357-0.0357 0.0119 (  4979 PWs)   bands (ev):

   -18.9468 -18.9104 -16.9537 -16.9237 -15.7789 -15.7693  -9.7437  -9.6571
    -7.9773  -7.8721  -7.2988  -7.2810  -5.6275  -5.5348  -4.6757  -4.5922
    -4.4166  -4.4106  -1.3757  -1.3636  -1.2551  -1.2105  -0.9388  -0.8375

!    total energy              =    -242.36982655 Ry
     Harris-Foulkes estimate   =    -242.36982656 Ry
     estimated scf accuracy    <          5.6E-09 Ry

     total all-electron energy =      -900.786983 Ry

     The total energy is the sum of the following terms:

     one-electron contribution =    -121.82292620 Ry
     hartree contribution      =      77.87429007 Ry
     xc contribution           =     -49.33099475 Ry
     ewald contribution        =     -83.65877337 Ry
     one-center paw contrib.   =     -65.43142230 Ry

     convergence has been achieved in  12 iterations

     Writing output data file urea.save
 
     init_run     :      1.90s CPU      2.08s WALL (       1 calls)
     electrons    :     35.16s CPU     36.14s WALL (       1 calls)

     Called by init_run:
     wfcinit      :      0.78s CPU      0.86s WALL (       1 calls)
     potinit      :      0.40s CPU      0.45s WALL (       1 calls)

     Called by electrons:
     c_bands      :     19.77s CPU     20.45s WALL (      12 calls)
     sum_band     :      6.23s CPU      6.35s WALL (      12 calls)
     v_of_rho     :      1.40s CPU      1.47s WALL (      13 calls)
     newd         :      3.49s CPU      3.56s WALL (      13 calls)
     mix_rho      :      1.50s CPU      1.52s WALL (      12 calls)

     Called by c_bands:
     init_us_2    :      0.36s CPU      0.47s WALL (     150 calls)
     cegterg      :     18.82s CPU     19.28s WALL (      72 calls)

     Called by *egterg:
     h_psi        :     15.39s CPU     15.43s WALL (     334 calls)
     s_psi        :      0.88s CPU      0.90s WALL (     334 calls)
     g_psi        :      0.24s CPU      0.25s WALL (     256 calls)
     cdiaghg      :      0.39s CPU      0.49s WALL (     328 calls)

     Called by h_psi:
     add_vuspsi   :      0.92s CPU      0.89s WALL (     334 calls)

     General routines
     calbec       :      1.33s CPU      1.35s WALL (     406 calls)
     fft          :      0.75s CPU      0.80s WALL (     204 calls)
     ffts         :      0.05s CPU      0.05s WALL (      25 calls)
     fftw         :     13.69s CPU     13.69s WALL (   12678 calls)
     interpolate  :      0.16s CPU      0.17s WALL (      25 calls)
     davcio       :      0.08s CPU      0.16s WALL (     222 calls)
 
 
     PAW routines
     PAW_pot      :      3.16s CPU      3.20s WALL (      13 calls)
     PAW_ddot     :      1.28s CPU      1.29s WALL (     256 calls)
     PAW_symme    :      0.00s CPU      0.00s WALL (      25 calls)
 
     PWSCF        :    37.60s CPU        39.02s WALL

 
   This run was terminated on:  10:47:58  18Jun2013            

=------------------------------------------------------------------------------=
   JOB DONE.
=------------------------------------------------------------------------------=
