
     Program PWSCF v.5.1.2 starts on  5Feb2016 at 20:35:43 

     This program is part of the open-source Quantum ESPRESSO suite
     for quantum simulation of materials; please cite
         "P. Giannozzi et al., J. Phys.:Condens. Matter 21 395502 (2009);
          URL http://www.quantum-espresso.org", 
     in publications or presentations arising from this work. More details at
     http://www.quantum-espresso.org/quote

     Parallel version (MPI), running on    12 processors
     R & G space division:  proc/nbgrp/npool/nimage =      12
     Waiting for input...
     Reading input from standard input
     Message from routine read_cards :
     DEPRECATED: no units specified in CELL_PARAMETERS card

     Current dimensions of program PWSCF are:
     Max number of different atomic species (ntypx) = 10
     Max number of k-points (npk) =  40000
     Max angular momentum in pseudopotentials (lmaxx) =  3
     Message from routine iosys:
     xdm is obsolete, use "vdw_corr='xdm'" instead
               file h.UPF: wavefunction(s)  1S renormalized
               file o.UPF: wavefunction(s)  2P renormalized

     Subspace diagonalization in iterative solution of the eigenvalue problem:
     a serial algorithm will be used

 
     Parallelization info
     --------------------
     sticks:   dense  smooth     PW     G-vecs:    dense   smooth      PW
     Min         707     282     77                45277    11449    1612
     Max         708     283     78                45280    11470    1614
     Sum        8491    3393    925               543343   137549   19359
 

     Title: 
     crystal                                                                    


     bravais-lattice index     =            0
     lattice parameter (alat)  =       1.0000  a.u.
     unit-cell volume          =    1422.2884 (a.u.)^3
     number of atoms/cell      =           30
     number of atomic types    =            2
     number of electrons       =        80.00
     number of Kohn-Sham states=           40
     kinetic-energy cutoff     =      80.0000  Ry
     charge density cutoff     =     800.0000  Ry
     convergence threshold     =      1.0E-08
     mixing beta               =       0.7000
     number of iterations used =            8  plain     mixing
     Exchange-correlation      =  SLA  PW   B86B PBC ( 1  4 22  4 0 0)
     nstep                     =           50


     celldm(1)=   1.000000  celldm(2)=   0.000000  celldm(3)=   0.000000
     celldm(4)=   0.000000  celldm(5)=   0.000000  celldm(6)=   0.000000

     crystal axes: (cart. coord. in units of alat)
               a(1) = (  11.542380  -0.021281  -0.026704 )  
               a(2) = (  -0.021293  11.557224  -0.000815 )  
               a(3) = (  -0.024845  -0.000888  10.662096 )  

     reciprocal axes: (cart. coord. in units 2 pi/alat)
               b(1) = (  0.086638  0.000160  0.000202 )  
               b(2) = (  0.000160  0.086526  0.000008 )  
               b(3) = (  0.000217  0.000007  0.093791 )  


     PseudoPot. # 1 for  H read from file:
     ./h.UPF
     MD5 check sum: a05c38eace8e4bf5ff015d364fdf499b
     Pseudo is Projector augmented-wave, Zval =  1.0
     Generated using "atomic" code by A. Dal Corso  v.5.0.2 svn rev. 10467M
     Shape of augmentation charge: PSQ
     Using radial grid of  929 points,  2 beta functions with: 
                l(1) =   0
                l(2) =   0
     Q(r) pseudized with 0 coefficients 


     PseudoPot. # 2 for  O read from file:
     ./o.UPF
     MD5 check sum: e5d0ebeb85377a04d0834d2ed76ab915
     Pseudo is Projector augmented-wave + core cor, Zval =  6.0
     Generated using "atomic" code by A. Dal Corso  v.5.0.2 svn rev. 10467M
     Shape of augmentation charge: BESSEL
     Using radial grid of 1095 points,  4 beta functions with: 
                l(1) =   0
                l(2) =   0
                l(3) =   1
                l(4) =   1
     Q(r) pseudized with 0 coefficients 


     atomic species   valence    mass     pseudopotential
        h              1.00     1.00794      H( 1.00)
        o              6.00    15.99940      O( 1.00)

     No symmetry found



   Cartesian axes

     site n.     atom                  positions (alat units)
         1           h   tau(   1) = (   4.3289739   6.1951772   8.4022665  )
         2           h   tau(   2) = (   1.4212372   6.2864523   8.4032117  )
         3           o   tau(   3) = (   2.8510460   5.4155624   9.2573198  )
         4           o   tau(   4) = (  11.2447981   8.6852468   6.7447540  )
         5           h   tau(   5) = (   9.3698399   8.6804463   6.5753333  )
         6           h   tau(   6) = (   0.4521502   8.6870140   5.0573442  )
         7           o   tau(   7) = (   6.1141031   8.6254180   6.6922853  )
         8           h   tau(   8) = (   5.1506995   8.6206984   5.0748529  )
         9           h   tau(   9) = (   5.3388137  10.0365038   7.6539388  )
        10           h   tau(  10) = (   8.6960434   5.3030459  10.3827975  )
        11           h   tau(  11) = (   7.2615926   5.2381871   2.2780022  )
        12           o   tau(  12) = (   8.6620470   6.1406085   1.4048103  )
        13           o   tau(  13) = (   2.8932242   8.6649712   2.6791974  )
        14           h   tau(  14) = (   2.9223965  10.1236568   1.4893789  )
        15           h   tau(  15) = (   2.8898997   7.2175294   1.4851698  )
        16           h   tau(  16) = (   8.5843955   9.3944951   1.3103935  )
        17           o   tau(  17) = (   8.7241013  11.2719432   1.2801846  )
        18           h   tau(  18) = (   7.2649767   0.4256389   2.1772102  )
        19           o   tau(  19) = (   8.5606119   2.9790934   7.9933015  )
        20           h   tau(  20) = (   8.6988994   1.5076007   9.1549971  )
        21           h   tau(  21) = (   9.9618817   2.8588011   6.7506359  )
        22           h   tau(  22) = (   1.4989565  11.0892747   8.4017827  )
        23           o   tau(  23) = (   2.9760506   0.2681423   9.3211829  )
        24           h   tau(  24) = (   2.8455900   2.1420068   9.2362886  )
        25           h   tau(  25) = (   3.6063556   2.8820745   3.9268914  )
        26           o   tau(  26) = (   5.4816965   2.8649363   3.8159719  )
        27           h   tau(  27) = (   6.1736526   2.8375432   5.5548398  )
        28           h   tau(  28) = (  11.0812326   1.4072447   3.0332460  )
        29           o   tau(  29) = (   0.3138483   2.8735288   3.9816343  )
        30           h   tau(  30) = (  11.0679047   4.3121764   3.0765648  )

     number of k points=    32
                       cart. coord. in units 2pi/alat
        k(    1) = (   0.0108768   0.0108366   0.0117500), wk =   0.0625000
        k(    2) = (   0.0109311   0.0108384   0.0351977), wk =   0.0625000
        k(    3) = (   0.0107683   0.0108331  -0.0351453), wk =   0.0625000
        k(    4) = (   0.0108226   0.0108349  -0.0116977), wk =   0.0625000
        k(    5) = (   0.0109167   0.0324682   0.0117519), wk =   0.0625000
        k(    6) = (   0.0109710   0.0324699   0.0351996), wk =   0.0625000
        k(    7) = (   0.0108082   0.0324647  -0.0351434), wk =   0.0625000
        k(    8) = (   0.0108625   0.0324664  -0.0116958), wk =   0.0625000
        k(    9) = (   0.0107970  -0.0324265   0.0117462), wk =   0.0625000
        k(   10) = (   0.0108513  -0.0324248   0.0351939), wk =   0.0625000
        k(   11) = (   0.0106885  -0.0324300  -0.0351491), wk =   0.0625000
        k(   12) = (   0.0107428  -0.0324283  -0.0117014), wk =   0.0625000
        k(   13) = (   0.0108369  -0.0107950   0.0117481), wk =   0.0625000
        k(   14) = (   0.0108912  -0.0107932   0.0351958), wk =   0.0625000
        k(   15) = (   0.0107284  -0.0107985  -0.0351472), wk =   0.0625000
        k(   16) = (   0.0107827  -0.0107967  -0.0116995), wk =   0.0625000
        k(   17) = (   0.0325363   0.0108765   0.0118005), wk =   0.0625000
        k(   18) = (   0.0325906   0.0108783   0.0352482), wk =   0.0625000
        k(   19) = (   0.0324278   0.0108730  -0.0350949), wk =   0.0625000
        k(   20) = (   0.0324821   0.0108748  -0.0116472), wk =   0.0625000
        k(   21) = (   0.0325762   0.0325081   0.0118024), wk =   0.0625000
        k(   22) = (   0.0326305   0.0325098   0.0352501), wk =   0.0625000
        k(   23) = (   0.0324677   0.0325046  -0.0350930), wk =   0.0625000
        k(   24) = (   0.0325220   0.0325063  -0.0116453), wk =   0.0625000
        k(   25) = (   0.0324565  -0.0323866   0.0117967), wk =   0.0625000
        k(   26) = (   0.0325108  -0.0323849   0.0352444), wk =   0.0625000
        k(   27) = (   0.0323480  -0.0323901  -0.0350986), wk =   0.0625000
        k(   28) = (   0.0324023  -0.0323884  -0.0116510), wk =   0.0625000
        k(   29) = (   0.0324964  -0.0107550   0.0117986), wk =   0.0625000
        k(   30) = (   0.0325507  -0.0107533   0.0352463), wk =   0.0625000
        k(   31) = (   0.0323879  -0.0107586  -0.0350967), wk =   0.0625000
        k(   32) = (   0.0324422  -0.0107568  -0.0116491), wk =   0.0625000

     Dense  grid:   543343 G-vectors     FFT dimensions: ( 108, 108,  96)

     Smooth grid:   137549 G-vectors     FFT dimensions: (  72,  72,  64)

     Largest allocated arrays     est. size (Mb)     dimensions
        Kohn-Sham Wavefunctions         0.88 Mb     (    1441,   40)
        NL pseudopotentials             2.64 Mb     (    1441,  120)
        Each V/rho on FFT grid          1.42 Mb     (   93312)
        Each G-vector array             0.35 Mb     (   45278)
        G-vector shells                 0.35 Mb     (   45278)
     Largest temporary arrays     est. size (Mb)     dimensions
        Auxiliary wavefunctions         3.52 Mb     (    1441,  160)
        Each subspace H/S matrix        0.39 Mb     (     160,  160)
        Each <psi_i|beta_j> matrix      0.07 Mb     (     120,   40)
        Arrays for rho mixing          11.39 Mb     (   93312,    8)

     Initial potential from superposition of free atoms

     starting charge   79.99980, renormalised to   80.00000
     Starting wfc are   60 randomized atomic wfcs
     Checking if some PAW data can be deallocated... 

     total cpu time spent up to now is        9.8 secs

     per-process dynamical memory:    64.1 Mb

     Self-consistent Calculation

     iteration #  1     ecut=    80.00 Ry     beta=0.70
     Davidson diagonalization with overlap
     ethr =  1.00E-02,  avg # of iterations =  2.0

     total cpu time spent up to now is       30.2 secs

     total energy              =    -440.73017519 Ry
     Harris-Foulkes estimate   =    -442.97675477 Ry
     estimated scf accuracy    <       3.13247785 Ry

     iteration #  2     ecut=    80.00 Ry     beta=0.70
     Davidson diagonalization with overlap
     ethr =  3.92E-03,  avg # of iterations =  3.0

     total cpu time spent up to now is       53.9 secs

     total energy              =    -441.58688173 Ry
     Harris-Foulkes estimate   =    -442.80533498 Ry
     estimated scf accuracy    <       2.33538097 Ry

     iteration #  3     ecut=    80.00 Ry     beta=0.70
     Davidson diagonalization with overlap
     ethr =  2.92E-03,  avg # of iterations =  2.0

     total cpu time spent up to now is       74.9 secs

     total energy              =    -442.06154440 Ry
     Harris-Foulkes estimate   =    -442.06510463 Ry
     estimated scf accuracy    <       0.02046606 Ry

     iteration #  4     ecut=    80.00 Ry     beta=0.70
     Davidson diagonalization with overlap
     ethr =  2.56E-05,  avg # of iterations =  3.0

     total cpu time spent up to now is       96.5 secs

     total energy              =    -442.07000852 Ry
     Harris-Foulkes estimate   =    -442.07183782 Ry
     estimated scf accuracy    <       0.00527925 Ry

     iteration #  5     ecut=    80.00 Ry     beta=0.70
     Davidson diagonalization with overlap
     ethr =  6.60E-06,  avg # of iterations =  2.0

     total cpu time spent up to now is      113.8 secs

     total energy              =    -442.07014742 Ry
     Harris-Foulkes estimate   =    -442.07033799 Ry
     estimated scf accuracy    <       0.00143746 Ry

     iteration #  6     ecut=    80.00 Ry     beta=0.70
     Davidson diagonalization with overlap
     ethr =  1.80E-06,  avg # of iterations =  1.0

     total cpu time spent up to now is      130.6 secs

     total energy              =    -442.06988864 Ry
     Harris-Foulkes estimate   =    -442.07018689 Ry
     estimated scf accuracy    <       0.00096401 Ry

     iteration #  7     ecut=    80.00 Ry     beta=0.70
     Davidson diagonalization with overlap
     ethr =  1.21E-06,  avg # of iterations =  2.0

     total cpu time spent up to now is      148.2 secs

     total energy              =    -442.06986669 Ry
     Harris-Foulkes estimate   =    -442.06994728 Ry
     estimated scf accuracy    <       0.00019633 Ry

     iteration #  8     ecut=    80.00 Ry     beta=0.70
     Davidson diagonalization with overlap
     ethr =  2.45E-07,  avg # of iterations =  2.0

     total cpu time spent up to now is      168.7 secs

     total energy              =    -442.06989636 Ry
     Harris-Foulkes estimate   =    -442.06990015 Ry
     estimated scf accuracy    <       0.00001373 Ry

     iteration #  9     ecut=    80.00 Ry     beta=0.70
     Davidson diagonalization with overlap
     ethr =  1.72E-08,  avg # of iterations =  2.0

     total cpu time spent up to now is      185.9 secs

     total energy              =    -442.06989555 Ry
     Harris-Foulkes estimate   =    -442.06989732 Ry
     estimated scf accuracy    <       0.00000536 Ry

     iteration # 10     ecut=    80.00 Ry     beta=0.70
     Davidson diagonalization with overlap
     ethr =  6.70E-09,  avg # of iterations =  2.0

     total cpu time spent up to now is      204.0 secs

     total energy              =    -442.06989556 Ry
     Harris-Foulkes estimate   =    -442.06989605 Ry
     estimated scf accuracy    <       0.00000095 Ry

     iteration # 11     ecut=    80.00 Ry     beta=0.70
     Davidson diagonalization with overlap
     ethr =  1.19E-09,  avg # of iterations =  2.0

     total cpu time spent up to now is      225.1 secs

     total energy              =    -442.06989578 Ry
     Harris-Foulkes estimate   =    -442.06989578 Ry
     estimated scf accuracy    <       0.00000004 Ry

     iteration # 12     ecut=    80.00 Ry     beta=0.70
     Davidson diagonalization with overlap
     ethr =  4.71E-11,  avg # of iterations =  2.0

     total cpu time spent up to now is      245.2 secs

     total energy              =    -442.06989577 Ry
     Harris-Foulkes estimate   =    -442.06989578 Ry
     estimated scf accuracy    <       0.00000002 Ry

     iteration # 13     ecut=    80.00 Ry     beta=0.70
     Davidson diagonalization with overlap
     ethr =  2.44E-11,  avg # of iterations =  2.0

     total cpu time spent up to now is      266.0 secs

     End of self-consistent calculation

          k = 0.0109 0.0108 0.0118 ( 17196 PWs)   bands (ev):

   -20.0726 -19.7877 -19.2917 -19.2623 -19.1214 -19.0964 -19.0116 -18.9872
   -18.8530 -18.8368  -7.7655  -7.6395  -7.6114  -7.4149  -7.1923  -7.1079
    -6.9920  -6.8698  -6.7665  -6.6601  -4.7239  -4.6362  -4.4453  -4.3573
    -4.1303  -3.9241  -3.7011  -3.4657  -2.6090  -2.4711  -1.9542  -1.8542
    -1.7286  -1.6344  -1.5823  -1.5498  -1.4591  -1.4026  -1.3427  -1.2995

          k = 0.0109 0.0108 0.0352 ( 17215 PWs)   bands (ev):

   -19.9185 -19.7432 -19.4950 -19.4171 -19.1463 -19.1259 -19.0266 -19.0010
   -18.7276 -18.7227  -7.8213  -7.6778  -7.4795  -7.3101  -7.2496  -7.1394
    -7.0294  -6.8958  -6.7255  -6.6758  -4.9070  -4.7354  -4.5090  -4.3412
    -3.9787  -3.9055  -3.4099  -3.2206  -2.8063  -2.6716  -1.9980  -1.8047
    -1.7256  -1.6422  -1.6082  -1.5505  -1.4592  -1.4006  -1.3412  -1.2845

          k = 0.0108 0.0108-0.0351 ( 17203 PWs)   bands (ev):

   -19.9189 -19.7440 -19.4892 -19.4211 -19.1519 -19.1183 -19.0286 -19.0018
   -18.7329 -18.7172  -7.8099  -7.6913  -7.4389  -7.3363  -7.2305  -7.2145
    -6.9991  -6.8738  -6.7270  -6.6863  -4.8444  -4.8180  -4.5114  -4.2887
    -4.0409  -3.8546  -3.3908  -3.2820  -2.7467  -2.6967  -1.9816  -1.8085
    -1.7572  -1.6436  -1.5927  -1.5718  -1.4530  -1.3921  -1.3474  -1.2750

          k = 0.0108 0.0108-0.0117 ( 17205 PWs)   bands (ev):

   -20.0727 -19.7882 -19.2911 -19.2545 -19.1428 -19.0809 -19.0133 -18.9877
   -18.8585 -18.8312  -7.7470  -7.6496  -7.5923  -7.4506  -7.2042  -7.1100
    -6.9882  -6.8228  -6.7843  -6.6727  -4.7178  -4.6046  -4.5229  -4.3544
    -4.0819  -3.9116  -3.6452  -3.5567  -2.5757  -2.4849  -1.8996  -1.8681
    -1.8049  -1.6360  -1.5577  -1.5382  -1.4769  -1.3864  -1.3506  -1.2958

          k = 0.0109 0.0325 0.0118 ( 17184 PWs)   bands (ev):

   -19.9509 -19.7994 -19.4077 -19.3142 -19.1986 -19.1558 -19.0160 -18.9785
   -18.7614 -18.7450  -7.7220  -7.5958  -7.5070  -7.4022  -7.1514  -7.1072
    -6.9931  -6.9332  -6.7643  -6.7019  -4.8869  -4.7888  -4.4554  -4.4314
    -4.0014  -3.8550  -3.5235  -3.3070  -2.7893  -2.6046  -1.9482  -1.8884
    -1.7226  -1.6736  -1.6255  -1.5463  -1.4528  -1.4026  -1.3647  -1.3245

          k = 0.0110 0.0325 0.0352 ( 17194 PWs)   bands (ev):

   -19.8117 -19.6946 -19.5016 -19.3893 -19.3359 -19.2436 -19.0903 -19.0084
   -18.6318 -18.6237  -7.7201  -7.5805  -7.4548  -7.3000  -7.2234  -7.1621
    -7.0737  -6.9136  -6.7607  -6.6744  -5.0173  -4.9564  -4.4762  -4.3616
    -3.8166  -3.7159  -3.3718  -3.1839  -2.9815  -2.7805  -1.9955  -1.8563
    -1.7750  -1.7114  -1.5761  -1.5350  -1.4814  -1.3844  -1.3236  -1.2815

          k = 0.0108 0.0325-0.0351 ( 17191 PWs)   bands (ev):

   -19.8101 -19.7011 -19.4884 -19.3981 -19.3403 -19.2336 -19.0934 -19.0115
   -18.6335 -18.6210  -7.7105  -7.6009  -7.4085  -7.3293  -7.2116  -7.1794
    -7.0747  -6.9349  -6.7239  -6.6928  -5.0284  -4.9148  -4.5634  -4.2846
    -3.9433  -3.5868  -3.3158  -3.2365  -2.9633  -2.8216  -1.9989  -1.8549
    -1.7874  -1.6983  -1.5868  -1.5512  -1.4309  -1.3849  -1.3527  -1.2748

          k = 0.0109 0.0325-0.0117 ( 17177 PWs)   bands (ev):

   -19.9508 -19.8005 -19.4047 -19.3199 -19.1944 -19.1463 -19.0249 -18.9831
   -18.7601 -18.7430  -7.7140  -7.5810  -7.4984  -7.4413  -7.1568  -7.0957
    -7.0079  -6.9112  -6.7860  -6.6877  -4.8879  -4.7430  -4.5820  -4.3216
    -4.0987  -3.7866  -3.5027  -3.3168  -2.7258  -2.6693  -1.9684  -1.8685
    -1.7804  -1.6664  -1.5596  -1.5382  -1.4893  -1.4082  -1.3464  -1.3312

          k = 0.0108-0.0324 0.0117 ( 17172 PWs)   bands (ev):

   -19.9511 -19.7994 -19.4045 -19.3140 -19.2097 -19.1501 -19.0177 -18.9730
   -18.7621 -18.7461  -7.7244  -7.5781  -7.4919  -7.4413  -7.1503  -7.0843
    -7.0040  -6.8920  -6.8012  -6.7193  -4.9262  -4.7319  -4.5097  -4.3593
    -4.0600  -3.7821  -3.5643  -3.3011  -2.7547  -2.6434  -1.9629  -1.8912
    -1.7421  -1.6664  -1.6222  -1.5114  -1.4477  -1.4122  -1.3626  -1.3331

          k = 0.0109-0.0324 0.0352 ( 17202 PWs)   bands (ev):

   -19.8093 -19.7009 -19.4892 -19.3996 -19.3405 -19.2341 -19.0951 -19.0065
   -18.6343 -18.6216  -7.7199  -7.5998  -7.4070  -7.3160  -7.2328  -7.1544
    -7.0228  -6.9787  -6.7584  -6.6823  -5.0479  -4.9229  -4.4455  -4.3774
    -3.8443  -3.6902  -3.3399  -3.2205  -2.9527  -2.8081  -1.9759  -1.8998
    -1.7941  -1.6810  -1.5812  -1.5247  -1.4853  -1.3849  -1.3283  -1.2695

          k = 0.0107-0.0324-0.0351 ( 17178 PWs)   bands (ev):

   -19.8140 -19.6945 -19.5010 -19.3826 -19.3372 -19.2390 -19.0979 -19.0120
   -18.6303 -18.6226  -7.7130  -7.5840  -7.4468  -7.3038  -7.2679  -7.1493
    -7.0051  -6.9414  -6.8093  -6.6459  -5.0473  -4.9236  -4.4716  -4.3251
    -3.8987  -3.6429  -3.4412  -3.1910  -2.9075  -2.8072  -1.9501  -1.8889
    -1.8308  -1.6957  -1.5625  -1.5327  -1.4836  -1.3881  -1.3241  -1.2651

          k = 0.0107-0.0324-0.0117 ( 17180 PWs)   bands (ev):

   -19.9522 -19.7993 -19.4055 -19.3128 -19.1978 -19.1466 -19.0261 -18.9881
   -18.7567 -18.7426  -7.7104  -7.5923  -7.5049  -7.4219  -7.1955  -7.0833
    -6.9707  -6.9083  -6.7973  -6.6951  -4.9211  -4.7499  -4.5160  -4.3090
    -4.1053  -3.7303  -3.6353  -3.2982  -2.7412  -2.6405  -1.9406  -1.8900
    -1.7605  -1.6642  -1.5990  -1.5368  -1.4515  -1.4270  -1.3630  -1.3102

          k = 0.0108-0.0108 0.0117 ( 17207 PWs)   bands (ev):

   -20.0728 -19.7876 -19.2900 -19.2559 -19.1544 -19.0731 -19.0148 -18.9772
   -18.8578 -18.8372  -7.7649  -7.6424  -7.5909  -7.4421  -7.1817  -7.0991
    -6.9871  -6.8589  -6.7585  -6.7036  -4.7478  -4.5989  -4.4715  -4.2875
    -4.1482  -3.9761  -3.6584  -3.4771  -2.6098  -2.4702  -1.9442  -1.8725
    -1.7584  -1.6685  -1.5828  -1.4688  -1.4457  -1.4221  -1.3601  -1.2942

          k = 0.0109-0.0108 0.0352 ( 17208 PWs)   bands (ev):

   -19.9178 -19.7455 -19.4848 -19.4274 -19.1558 -19.1041 -19.0458 -18.9918
   -18.7325 -18.7185  -7.8197  -7.6892  -7.4582  -7.3083  -7.2370  -7.1497
    -7.0395  -6.8602  -6.7908  -6.6606  -4.9235  -4.7386  -4.3975  -4.3783
    -4.0496  -3.9021  -3.3679  -3.2099  -2.8261  -2.6784  -1.9757  -1.8488
    -1.7400  -1.6546  -1.6033  -1.5105  -1.4644  -1.3997  -1.3548  -1.2681

          k = 0.0107-0.0108-0.0351 ( 17201 PWs)   bands (ev):

   -19.9202 -19.7419 -19.4987 -19.4090 -19.1544 -19.1076 -19.0458 -18.9998
   -18.7267 -18.7198  -7.8102  -7.6849  -7.4652  -7.3336  -7.2562  -7.1687
    -6.9563  -6.9030  -6.7783  -6.6510  -4.9312  -4.7529  -4.3785  -4.3523
    -4.0215  -3.9191  -3.4253  -3.2887  -2.7489  -2.6554  -1.9437  -1.8391
    -1.7822  -1.6540  -1.5983  -1.5310  -1.4844  -1.3741  -1.3548  -1.2602

          k = 0.0108-0.0108-0.0117 ( 17200 PWs)   bands (ev):

   -20.0733 -19.7879 -19.2861 -19.2607 -19.1135 -19.0946 -19.0361 -18.9887
   -18.8524 -18.8275  -7.7419  -7.6488  -7.6137  -7.4282  -7.2178  -7.1265
    -6.9551  -6.8328  -6.7583  -6.6984  -4.7316  -4.7068  -4.3533  -4.2864
    -4.1329  -3.9664  -3.6839  -3.5536  -2.5582  -2.4937  -1.9032  -1.8848
    -1.7319  -1.6759  -1.6052  -1.4900  -1.4723  -1.3814  -1.3706  -1.2858

          k = 0.0325 0.0109 0.0118 ( 17180 PWs)   bands (ev):

   -19.9527 -19.8099 -19.4045 -19.3021 -19.1803 -19.1382 -19.0265 -18.9981
   -18.7717 -18.7446  -7.7086  -7.5766  -7.5114  -7.3448  -7.2276  -7.1484
    -7.0281  -6.9359  -6.7668  -6.6127  -4.9421  -4.8458  -4.4134  -4.3395
    -4.0849  -3.8453  -3.4351  -3.3055  -2.7681  -2.6267  -1.9998  -1.8742
    -1.7512  -1.6914  -1.6643  -1.5442  -1.4647  -1.4092  -1.3221  -1.2878

          k = 0.0326 0.0109 0.0352 ( 17187 PWs)   bands (ev):

   -19.8123 -19.7167 -19.4902 -19.4080 -19.2936 -19.2116 -19.0933 -19.0452
   -18.6382 -18.6228  -7.7197  -7.5873  -7.4186  -7.2904  -7.2043  -7.1978
    -7.0497  -7.0340  -6.7249  -6.6086  -5.1356  -4.9856  -4.3500  -4.2785
    -3.8456  -3.7529  -3.3580  -3.2253  -2.9822  -2.7774  -2.0134  -1.8724
    -1.6946  -1.6624  -1.6175  -1.5301  -1.4723  -1.4082  -1.3347  -1.3206

          k = 0.0324 0.0109-0.0351 ( 17187 PWs)   bands (ev):

   -19.8148 -19.7147 -19.4891 -19.4017 -19.2977 -19.2201 -19.0876 -19.0449
   -18.6387 -18.6227  -7.7088  -7.5958  -7.3617  -7.3277  -7.2924  -7.1834
    -7.0504  -6.9551  -6.7435  -6.6187  -5.1243  -4.9926  -4.3791  -4.2759
    -3.7995  -3.7097  -3.4230  -3.2925  -2.8984  -2.7925  -1.9973  -1.8430
    -1.7587  -1.6542  -1.6101  -1.5493  -1.4402  -1.3909  -1.3635  -1.3207

          k = 0.0325 0.0109-0.0116 ( 17180 PWs)   bands (ev):

   -19.9531 -19.8102 -19.4026 -19.2919 -19.1949 -19.1442 -19.0143 -18.9998
   -18.7730 -18.7446  -7.6883  -7.5700  -7.5285  -7.3725  -7.2367  -7.1672
    -6.9977  -6.8537  -6.8246  -6.6223  -4.9390  -4.8311  -4.4790  -4.3523
    -4.0065  -3.8126  -3.4602  -3.3572  -2.7181  -2.6591  -1.9611  -1.8643
    -1.7813  -1.7021  -1.6385  -1.5649  -1.4729  -1.3829  -1.3331  -1.2988

          k = 0.0326 0.0325 0.0118 ( 17159 PWs)   bands (ev):

   -19.8401 -19.7522 -19.4522 -19.3746 -19.3087 -19.2504 -19.0108 -18.9989
   -18.6815 -18.6659  -7.6475  -7.5043  -7.4236  -7.3408  -7.2139  -7.1788
    -7.0117  -6.9669  -6.7520  -6.6763  -5.0080  -4.9421  -4.5287  -4.4040
    -3.9140  -3.7043  -3.3599  -3.2299  -2.9929  -2.7817  -2.0320  -1.8543
    -1.7734  -1.7351  -1.6537  -1.5337  -1.4718  -1.4022  -1.3117  -1.2662

          k = 0.0326 0.0325 0.0353 ( 17184 PWs)   bands (ev):

   -19.7058 -19.6367 -19.4553 -19.4231 -19.3291 -19.3067 -19.2155 -19.1856
   -18.5438 -18.5373  -7.6157  -7.4924  -7.3945  -7.2644  -7.2350  -7.1970
    -7.0776  -6.9567  -6.7598  -6.7044  -5.1568  -5.1368  -4.3912  -4.2719
    -3.7510  -3.6549  -3.3217  -3.1824  -3.1375  -2.8937  -2.0242  -1.8658
    -1.7688  -1.7068  -1.6099  -1.5784  -1.4972  -1.3359  -1.3185  -1.2754

          k = 0.0325 0.0325-0.0351 ( 17179 PWs)   bands (ev):

   -19.7084 -19.6363 -19.4466 -19.4260 -19.3319 -19.3024 -19.2231 -19.1834
   -18.5443 -18.5365  -7.6100  -7.4947  -7.3660  -7.3170  -7.2637  -7.1590
    -7.0709  -6.9257  -6.7863  -6.7062  -5.1667  -5.1112  -4.4149  -4.2948
    -3.7658  -3.5993  -3.3067  -3.1627  -3.1288  -2.9472  -2.0112  -1.8580
    -1.8057  -1.7147  -1.6139  -1.5410  -1.4723  -1.3559  -1.3243  -1.2824

          k = 0.0325 0.0325-0.0116 ( 17172 PWs)   bands (ev):

   -19.8406 -19.7526 -19.4520 -19.3699 -19.3109 -19.2505 -19.0133 -18.9989
   -18.6812 -18.6653  -7.6351  -7.4781  -7.4507  -7.3758  -7.2318  -7.1559
    -6.9966  -6.9401  -6.7705  -6.6818  -5.0206  -4.8883  -4.5768  -4.4387
    -3.8557  -3.7355  -3.3240  -3.2248  -2.9771  -2.8274  -2.0121  -1.8653
    -1.8055  -1.7328  -1.6061  -1.5410  -1.4745  -1.3950  -1.3224  -1.2756

          k = 0.0325-0.0324 0.0118 ( 17160 PWs)   bands (ev):

   -19.8425 -19.7490 -19.4513 -19.3635 -19.3249 -19.2510 -19.0082 -18.9960
   -18.6816 -18.6673  -7.6498  -7.4801  -7.4246  -7.3861  -7.2377  -7.1265
    -7.0096  -6.9120  -6.7749  -6.7229  -5.0216  -4.9097  -4.5861  -4.3537
    -3.8790  -3.7176  -3.4294  -3.1803  -2.9587  -2.8269  -2.0279  -1.8599
    -1.7720  -1.7374  -1.6047  -1.5777  -1.4634  -1.3956  -1.3188  -1.2714

          k = 0.0325-0.0324 0.0352 ( 17186 PWs)   bands (ev):

   -19.7072 -19.6353 -19.4460 -19.4308 -19.3317 -19.3047 -19.2287 -19.1730
   -18.5444 -18.5371  -7.6257  -7.4938  -7.3559  -7.3105  -7.2592  -7.1538
    -7.0372  -6.9325  -6.8310  -6.7064  -5.1894  -5.0979  -4.4051  -4.2286
    -3.8126  -3.6192  -3.3614  -3.1413  -3.0893  -2.9417  -2.0198  -1.8668
    -1.8005  -1.6882  -1.6015  -1.5688  -1.5096  -1.3512  -1.3072  -1.2708

          k = 0.0323-0.0324-0.0351 ( 17183 PWs)   bands (ev):

   -19.7117 -19.6349 -19.4547 -19.4137 -19.3255 -19.2981 -19.2304 -19.1904
   -18.5432 -18.5364  -7.6027  -7.5029  -7.3729  -7.3127  -7.2440  -7.1746
    -7.0477  -6.9560  -6.8195  -6.6669  -5.1979  -5.0942  -4.3488  -4.2903
    -3.7655  -3.6277  -3.4447  -3.1733  -3.0273  -2.9217  -1.9849  -1.9191
    -1.7940  -1.7087  -1.6212  -1.5320  -1.4806  -1.3816  -1.3054  -1.2562

          k = 0.0324-0.0324-0.0117 ( 17170 PWs)   bands (ev):

   -19.8435 -19.7502 -19.4499 -19.3661 -19.3184 -19.2442 -19.0147 -19.0044
   -18.6797 -18.6641  -7.6316  -7.4942  -7.4287  -7.3649  -7.2617  -7.1454
    -7.0097  -6.9375  -6.7756  -6.6672  -5.0418  -4.9103  -4.5169  -4.4101
    -3.8626  -3.7078  -3.4720  -3.2081  -2.9339  -2.8031  -2.0186  -1.8627
    -1.8115  -1.7485  -1.6091  -1.5221  -1.4824  -1.3796  -1.3401  -1.2563

          k = 0.0325-0.0108 0.0118 ( 17182 PWs)   bands (ev):

   -19.9536 -19.8085 -19.4042 -19.2961 -19.1919 -19.1446 -19.0135 -18.9968
   -18.7724 -18.7469  -7.7087  -7.5726  -7.5113  -7.3667  -7.2315  -7.1359
    -6.9923  -6.8902  -6.8205  -6.6405  -4.9382  -4.8381  -4.4624  -4.2868
    -4.0428  -3.8941  -3.4454  -3.2888  -2.7368  -2.6725  -1.9862  -1.8542
    -1.7875  -1.7176  -1.6154  -1.5374  -1.4808  -1.3982  -1.3386  -1.2850

          k = 0.0326-0.0108 0.0352 ( 17190 PWs)   bands (ev):

   -19.8128 -19.7164 -19.4894 -19.4051 -19.2985 -19.2142 -19.0898 -19.0440
   -18.6388 -18.6230  -7.7234  -7.5924  -7.4100  -7.2942  -7.2243  -7.1693
    -7.0521  -6.9878  -6.7799  -6.6110  -5.1547  -4.9573  -4.3479  -4.2354
    -3.9465  -3.7177  -3.3109  -3.2328  -2.9808  -2.7980  -2.0060  -1.8604
    -1.7480  -1.6396  -1.6081  -1.5337  -1.4713  -1.4005  -1.3587  -1.3009

          k = 0.0324-0.0108-0.0351 ( 17189 PWs)   bands (ev):

   -19.8162 -19.7142 -19.4910 -19.3976 -19.2951 -19.2173 -19.0915 -19.0498
   -18.6372 -18.6220  -7.7028  -7.5991  -7.3917  -7.3219  -7.2541  -7.1658
    -7.0859  -6.9689  -6.7461  -6.6015  -5.1478  -4.9870  -4.3164  -4.2336
    -3.8646  -3.7476  -3.4220  -3.3238  -2.8788  -2.7567  -1.9781  -1.8984
    -1.7478  -1.6630  -1.6230  -1.5166  -1.4525  -1.4153  -1.3565  -1.2844

          k = 0.0324-0.0108-0.0116 ( 17187 PWs)   bands (ev):

   -19.9543 -19.8092 -19.4024 -19.2941 -19.1869 -19.1373 -19.0286 -19.0037
   -18.7708 -18.7413  -7.6815  -7.5802  -7.5247  -7.3496  -7.2623  -7.1729
    -6.9704  -6.9308  -6.7593  -6.6295  -4.9523  -4.8671  -4.4109  -4.2905
    -4.0214  -3.8434  -3.5468  -3.3376  -2.7039  -2.6301  -1.9811  -1.8641
    -1.7961  -1.7238  -1.6414  -1.5361  -1.4441  -1.3937  -1.3515  -1.2773

     highest occupied level (ev):    -1.2562

* XDM dispersion
  a1 =     0.651200
  a2 (ang) =     1.463300
  a2 (bohr) =     2.765236
 
+ Volumes and moments
# All results in atomic units (Hartree,bohr)
# i        V             Vfree           M1             M2             M3
  1   8.029917E+00   1.032844E+01   1.410679E+00   1.379567E+01   2.668075E+02
  2   8.011659E+00   1.032844E+01   1.409007E+00   1.375839E+01   2.663772E+02
  3   2.061851E+01   2.369510E+01   4.375572E+00   3.276280E+01   3.287179E+02
  4   2.068722E+01   2.369510E+01   4.394431E+00   3.292047E+01   3.291878E+02
  5   8.030189E+00   1.032844E+01   1.459929E+00   1.414468E+01   2.672957E+02
  6   8.019751E+00   1.032844E+01   1.429304E+00   1.388985E+01   2.666482E+02
  7   2.070637E+01   2.369510E+01   4.394652E+00   3.296867E+01   3.304731E+02
  8   8.036330E+00   1.032844E+01   1.421967E+00   1.387386E+01   2.670949E+02
  9   8.062775E+00   1.032844E+01   1.419126E+00   1.387049E+01   2.672952E+02
 10   8.012232E+00   1.032844E+01   1.411158E+00   1.381107E+01   2.668142E+02
 11   8.009191E+00   1.032844E+01   1.400247E+00   1.368652E+01   2.662582E+02
 12   2.063574E+01   2.369510E+01   4.378301E+00   3.273244E+01   3.277124E+02
 13   2.065279E+01   2.369510E+01   4.376575E+00   3.279528E+01   3.288258E+02
 14   8.056008E+00   1.032844E+01   1.423407E+00   1.392989E+01   2.674127E+02
 15   8.017661E+00   1.032844E+01   1.424977E+00   1.387929E+01   2.664213E+02
 16   8.035463E+00   1.032844E+01   1.456376E+00   1.413164E+01   2.673233E+02
 17   2.070671E+01   2.369510E+01   4.382637E+00   3.292139E+01   3.304107E+02
 18   8.058235E+00   1.032844E+01   1.418458E+00   1.383633E+01   2.670451E+02
 19   2.069355E+01   2.369510E+01   4.390786E+00   3.290283E+01   3.295454E+02
 20   8.035567E+00   1.032844E+01   1.422147E+00   1.387916E+01   2.673302E+02
 21   8.021688E+00   1.032844E+01   1.425454E+00   1.389328E+01   2.672047E+02
 22   8.035987E+00   1.032844E+01   1.416878E+00   1.381517E+01   2.670149E+02
 23   2.070959E+01   2.369510E+01   4.385916E+00   3.293069E+01   3.302809E+02
 24   8.030267E+00   1.032844E+01   1.457408E+00   1.413505E+01   2.672763E+02
 25   8.012790E+00   1.032844E+01   1.457337E+00   1.411347E+01   2.669725E+02
 26   2.069073E+01   2.369510E+01   4.392665E+00   3.293175E+01   3.295856E+02
 27   8.054399E+00   1.032844E+01   1.434593E+00   1.397193E+01   2.672653E+02
 28   8.047165E+00   1.032844E+01   1.414910E+00   1.384588E+01   2.671409E+02
 29   2.062231E+01   2.369510E+01   4.377964E+00   3.278882E+01   3.289838E+02
 30   7.994670E+00   1.032844E+01   1.404987E+00   1.373015E+01   2.664815E+02
 
+ Dispersion coefficients
# All results in atomic units (Hartree,bohr).
# i   j      C6             C8             C10            Rc            Rvdw
  1   1   2.467555E+00   7.239401E+01   2.857959E+03   5.844457E+00   6.571147E+00
  2   1   2.463287E+00   7.221390E+01   2.851113E+03   5.843545E+00   6.570553E+00
  2   2   2.459026E+00   7.203422E+01   2.844286E+03   5.842633E+00   6.569959E+00
  3   1   4.632841E+00   1.199937E+02   3.873359E+03   5.382680E+00   6.270438E+00
  3   2   4.625823E+00   1.197088E+02   3.864581E+03   5.381715E+00   6.269809E+00
  3   3   1.030326E+01   2.314419E+02   5.522301E+03   4.811930E+00   5.898765E+00
  4   1   4.649649E+00   1.204552E+02   3.886124E+03   5.382196E+00   6.270123E+00
  4   2   4.642607E+00   1.201693E+02   3.877316E+03   5.381231E+00   6.269494E+00
  4   3   1.034263E+01   2.323844E+02   5.540163E+03   4.811214E+00   5.898299E+00
  4   4   1.038215E+01   2.333307E+02   5.558083E+03   4.810498E+00   5.897833E+00
  5   1   2.509933E+00   7.329530E+01   2.867327E+03   5.824075E+00   6.557874E+00
  5   2   2.505615E+00   7.311337E+01   2.860473E+03   5.823159E+00   6.557277E+00
  5   3   4.744503E+00   1.222393E+02   3.895791E+03   5.358095E+00   6.254427E+00
  5   4   4.761750E+00   1.227104E+02   3.908626E+03   5.357603E+00   6.254108E+00
  5   5   2.553789E+00   7.422800E+01   2.877107E+03   5.803527E+00   6.544493E+00
  6   1   2.482154E+00   7.259320E+01   2.855806E+03   5.834720E+00   6.564806E+00
  6   2   2.477870E+00   7.241271E+01   2.848973E+03   5.833807E+00   6.564212E+00
  6   3   4.673516E+00   1.206158E+02   3.874244E+03   5.371169E+00   6.262942E+00
  6   4   4.690486E+00   1.210801E+02   3.887007E+03   5.370681E+00   6.262624E+00
  6   5   2.525094E+00   7.350495E+01   2.865314E+03   5.814265E+00   6.551485E+00
  6   6   2.496968E+00   7.279599E+01   2.853714E+03   5.824953E+00   6.558446E+00
  7   1   4.652720E+00   1.206086E+02   3.893401E+03   5.383825E+00   6.271183E+00
  7   2   4.645672E+00   1.203224E+02   3.884576E+03   5.382859E+00   6.270554E+00
  7   3   1.034767E+01   2.326622E+02   5.552287E+03   4.813261E+00   5.899632E+00
  7   4   1.038721E+01   2.336096E+02   5.570252E+03   4.812546E+00   5.899166E+00
  7   5   4.764865E+00   1.228664E+02   3.915988E+03   5.359248E+00   6.255179E+00
  7   6   4.693572E+00   1.212344E+02   3.894304E+03   5.372316E+00   6.263688E+00
  7   7   1.039228E+01   2.338886E+02   5.582438E+03   4.814592E+00   5.900499E+00
  8   1   2.478381E+00   7.262746E+01   2.861753E+03   5.839948E+00   6.568210E+00
  8   2   2.474099E+00   7.244685E+01   2.854901E+03   5.839034E+00   6.567615E+00
  8   3   4.659762E+00   1.205327E+02   3.880440E+03   5.377277E+00   6.266919E+00
  8   4   4.676675E+00   1.209965E+02   3.893227E+03   5.376792E+00   6.266603E+00
  8   5   2.521100E+00   7.353577E+01   2.871209E+03   5.819530E+00   6.554914E+00
  8   6   2.493109E+00   7.282891E+01   2.859627E+03   5.830195E+00   6.561859E+00
  8   7   4.679758E+00   1.211506E+02   3.900527E+03   5.378424E+00   6.267666E+00
  8   8   2.489287E+00   7.286250E+01   2.865567E+03   5.835430E+00   6.565269E+00
  9   1   2.479989E+00   7.273841E+01   2.867923E+03   5.842128E+00   6.569630E+00
  9   2   2.475700E+00   7.255747E+01   2.861052E+03   5.841214E+00   6.569035E+00
  9   3   4.657920E+00   1.206049E+02   3.886237E+03   5.379812E+00   6.268570E+00
  9   4   4.674821E+00   1.210688E+02   3.899043E+03   5.379327E+00   6.268254E+00
  9   5   2.522621E+00   7.364508E+01   2.877313E+03   5.821725E+00   6.556343E+00
  9   6   2.494678E+00   7.293898E+01   2.865755E+03   5.832380E+00   6.563282E+00
  9   7   4.677907E+00   1.212231E+02   3.906352E+03   5.380958E+00   6.269316E+00
  9   8   2.490878E+00   7.297319E+01   2.871727E+03   5.837613E+00   6.566690E+00
  9   9   2.492488E+00   7.308451E+01   2.877917E+03   5.839795E+00   6.568111E+00
 10   1   2.465252E+00   7.235456E+01   2.855769E+03   5.844657E+00   6.571277E+00
 10   2   2.460990E+00   7.217463E+01   2.848930E+03   5.843744E+00   6.570682E+00
 10   3   4.630843E+00   1.199947E+02   3.872245E+03   5.382837E+00   6.270540E+00
 10   4   4.647647E+00   1.204563E+02   3.885009E+03   5.382354E+00   6.270225E+00
 10   5   2.507646E+00   7.325709E+01   2.865191E+03   5.824274E+00   6.558004E+00
 10   6   2.479861E+00   7.255440E+01   2.853642E+03   5.834918E+00   6.564935E+00
 10   7   4.650715E+00   1.206097E+02   3.892284E+03   5.383983E+00   6.271286E+00
 10   8   2.476080E+00   7.258825E+01   2.859572E+03   5.840147E+00   6.568340E+00
 10   9   2.477678E+00   7.269887E+01   2.865728E+03   5.842328E+00   6.569760E+00
 10  10   2.462956E+00   7.231525E+01   2.853586E+03   5.844857E+00   6.571407E+00
 11   1   2.455232E+00   7.201374E+01   2.848166E+03   5.846909E+00   6.572744E+00
 11   2   2.450982E+00   7.183447E+01   2.841344E+03   5.845999E+00   6.572151E+00
 11   3   4.605308E+00   1.192454E+02   3.858967E+03   5.385834E+00   6.272491E+00
 11   4   4.622012E+00   1.197039E+02   3.871683E+03   5.385350E+00   6.272176E+00
 11   5   2.497295E+00   7.290718E+01   2.857450E+03   5.826553E+00   6.559487E+00
 11   6   2.469715E+00   7.221057E+01   2.846004E+03   5.837186E+00   6.566411E+00
 11   7   4.625069E+00   1.198566E+02   3.878926E+03   5.386975E+00   6.273234E+00
 11   8   2.465983E+00   7.224531E+01   2.851937E+03   5.842406E+00   6.569811E+00
 11   9   2.467598E+00   7.235616E+01   2.858096E+03   5.844582E+00   6.571228E+00
 11  10   2.452934E+00   7.197429E+01   2.845974E+03   5.847108E+00   6.572873E+00
 11  11   2.442985E+00   7.163588E+01   2.838417E+03   5.849360E+00   6.574339E+00
 12   1   4.636414E+00   1.200056E+02   3.871574E+03   5.381028E+00   6.269362E+00
 12   2   4.629390E+00   1.197206E+02   3.862800E+03   5.380063E+00   6.268734E+00
 12   3   1.031078E+01   2.314314E+02   5.516867E+03   4.809867E+00   5.897422E+00
 12   4   1.035017E+01   2.323738E+02   5.534704E+03   4.809150E+00   5.896954E+00
 12   5   4.748155E+00   1.222508E+02   3.893923E+03   5.356427E+00   6.253341E+00
 12   6   4.677118E+00   1.206274E+02   3.872429E+03   5.369511E+00   6.261862E+00
 12   7   1.035522E+01   2.326517E+02   5.546827E+03   4.811198E+00   5.898288E+00
 12   8   4.663355E+00   1.205445E+02   3.878636E+03   5.375622E+00   6.265841E+00
 12   9   4.661512E+00   1.206168E+02   3.884437E+03   5.378157E+00   6.267492E+00
 12  10   4.634414E+00   1.200066E+02   3.870459E+03   5.381185E+00   6.269464E+00
 12  11   4.608861E+00   1.192572E+02   3.857202E+03   5.384185E+00   6.271417E+00
 12  12   1.031830E+01   2.314207E+02   5.511428E+03   4.807802E+00   5.896077E+00
 13   1   4.638531E+00   1.201808E+02   3.879273E+03   5.383063E+00   6.270687E+00
 13   2   4.631503E+00   1.198955E+02   3.870479E+03   5.382098E+00   6.270058E+00
 13   3   1.031300E+01   2.317490E+02   5.529525E+03   4.812361E+00   5.899046E+00
 13   4   1.035240E+01   2.326926E+02   5.547410E+03   4.811646E+00   5.898580E+00
 13   5   4.750280E+00   1.224288E+02   3.901708E+03   5.358480E+00   6.254679E+00
 13   6   4.679236E+00   1.208035E+02   3.880145E+03   5.371553E+00   6.263191E+00
 13   7   1.035746E+01   2.329708E+02   5.559552E+03   4.813692E+00   5.899913E+00
 13   8   4.665475E+00   1.207204E+02   3.886358E+03   5.377661E+00   6.267169E+00
 13   9   4.663638E+00   1.207929E+02   3.892170E+03   5.380196E+00   6.268820E+00
 13  10   4.636527E+00   1.201817E+02   3.878155E+03   5.383221E+00   6.270790E+00
 13  11   4.610971E+00   1.194315E+02   3.864862E+03   5.386216E+00   6.272740E+00
 13  12   1.032052E+01   2.317385E+02   5.524085E+03   4.810298E+00   5.897702E+00
 13  13   1.032275E+01   2.320565E+02   5.536762E+03   4.812793E+00   5.899327E+00
 14   1   2.482675E+00   7.286313E+01   2.869884E+03   5.841426E+00   6.569173E+00
 14   2   2.478384E+00   7.268199E+01   2.863009E+03   5.840510E+00   6.568577E+00
 14   3   4.666513E+00   1.209138E+02   3.890701E+03   5.378773E+00   6.267893E+00
 14   4   4.683450E+00   1.213789E+02   3.903524E+03   5.378289E+00   6.267578E+00
 14   5   2.525437E+00   7.377401E+01   2.879348E+03   5.821012E+00   6.555879E+00
 14   6   2.497415E+00   7.306521E+01   2.867739E+03   5.831671E+00   6.562821E+00
 14   7   4.686538E+00   1.215334E+02   3.910845E+03   5.379922E+00   6.268641E+00
 14   8   2.493593E+00   7.309888E+01   2.873704E+03   5.836909E+00   6.566231E+00
 14   9   2.495192E+00   7.320997E+01   2.879888E+03   5.839093E+00   6.567654E+00
 14  10   2.480368E+00   7.282369E+01   2.867696E+03   5.841627E+00   6.569304E+00
 14  11   2.470260E+00   7.247990E+01   2.860039E+03   5.843880E+00   6.570771E+00
 14  12   4.670111E+00   1.209258E+02   3.888892E+03   5.377117E+00   6.266815E+00
 14  13   4.672237E+00   1.211021E+02   3.896638E+03   5.379158E+00   6.268144E+00
 14  14   2.497908E+00   7.333589E+01   2.881872E+03   5.838392E+00   6.567197E+00
 15   1   2.478093E+00   7.255659E+01   2.855402E+03   5.836847E+00   6.566191E+00
 15   2   2.473815E+00   7.237620E+01   2.848567E+03   5.835933E+00   6.565596E+00
 15   3   4.663313E+00   1.205071E+02   3.872825E+03   5.373576E+00   6.264509E+00
 15   4   4.680243E+00   1.209709E+02   3.885585E+03   5.373089E+00   6.264192E+00
 15   5   2.520903E+00   7.346652E+01   2.864879E+03   5.816405E+00   6.552879E+00
 15   6   2.492859E+00   7.275881E+01   2.853296E+03   5.827084E+00   6.559833E+00
 15   7   4.683325E+00   1.211249E+02   3.892877E+03   5.374723E+00   6.265256E+00
 15   8   2.489018E+00   7.279191E+01   2.859215E+03   5.832324E+00   6.563246E+00
 15   9   2.490594E+00   7.290213E+01   2.865351E+03   5.834509E+00   6.564669E+00
 15  10   2.475799E+00   7.251765E+01   2.853234E+03   5.837046E+00   6.566320E+00
 15  11   2.465683E+00   7.217442E+01   2.845603E+03   5.839309E+00   6.567794E+00
 15  12   4.666907E+00   1.205187E+02   3.871015E+03   5.371918E+00   6.263430E+00
 15  13   4.669024E+00   1.206946E+02   3.878727E+03   5.373960E+00   6.264759E+00
 15  14   2.493320E+00   7.302804E+01   2.867332E+03   5.833803E+00   6.564209E+00
 15  15   2.488761E+00   7.272169E+01   2.852883E+03   5.829215E+00   6.561221E+00
 16   1   2.507764E+00   7.328718E+01   2.868696E+03   5.826018E+00   6.559139E+00
 16   2   2.503447E+00   7.310525E+01   2.861837E+03   5.825101E+00   6.558542E+00
 16   3   4.737491E+00   1.221630E+02   3.896633E+03   5.360365E+00   6.255906E+00
 16   4   4.754710E+00   1.226337E+02   3.909472E+03   5.359875E+00   6.255587E+00
 16   5   2.551514E+00   7.421807E+01   2.878444E+03   5.805484E+00   6.545767E+00
 16   6   2.522883E+00   7.349616E+01   2.866667E+03   5.816213E+00   6.552754E+00
 16   7   4.757823E+00   1.227896E+02   3.916833E+03   5.361518E+00   6.256657E+00
 16   8   2.518907E+00   7.352728E+01   2.872573E+03   5.821476E+00   6.556181E+00
 16   9   2.520437E+00   7.363683E+01   2.878688E+03   5.823670E+00   6.557610E+00
 16  10   2.505473E+00   7.324881E+01   2.866555E+03   5.826218E+00   6.559269E+00
 16  11   2.495146E+00   7.289939E+01   2.858819E+03   5.828492E+00   6.560751E+00
 16  12   4.741138E+00   1.221745E+02   3.894770E+03   5.358698E+00   6.254820E+00
 16  13   4.743264E+00   1.223524E+02   3.902555E+03   5.360751E+00   6.256157E+00
 16  14   2.523243E+00   7.376549E+01   2.880719E+03   5.822959E+00   6.557147E+00
 16  15   2.518702E+00   7.345783E+01   2.866235E+03   5.818352E+00   6.554147E+00
 16  16   2.549247E+00   7.420827E+01   2.879787E+03   5.807440E+00   6.547041E+00
 17   1   4.648917E+00   1.205782E+02   3.893870E+03   5.385078E+00   6.271999E+00
 17   2   4.641872E+00   1.202921E+02   3.885042E+03   5.384112E+00   6.271370E+00
 17   3   1.033360E+01   2.324972E+02   5.551877E+03   4.814810E+00   5.900641E+00
 17   4   1.037308E+01   2.334437E+02   5.569843E+03   4.814096E+00   5.900176E+00
 17   5   4.760875E+00   1.228333E+02   3.916431E+03   5.360513E+00   6.256002E+00
 17   6   4.689696E+00   1.212030E+02   3.894759E+03   5.373573E+00   6.264507E+00
 17   7   1.037814E+01   2.337226E+02   5.582024E+03   4.816142E+00   5.901508E+00
 17   8   4.675914E+00   1.211196E+02   3.900990E+03   5.379679E+00   6.268484E+00
 17   9   4.674079E+00   1.211924E+02   3.906825E+03   5.382213E+00   6.270133E+00
 17  10   4.646906E+00   1.205791E+02   3.892748E+03   5.385237E+00   6.272102E+00
 17  11   4.621302E+00   1.198267E+02   3.879395E+03   5.388226E+00   6.274049E+00
 17  12   1.034114E+01   2.324869E+02   5.546426E+03   4.812748E+00   5.899298E+00
 17  13   1.034337E+01   2.328057E+02   5.559146E+03   4.815242E+00   5.900922E+00
 17  14   4.682692E+00   1.215024E+02   3.911315E+03   5.381178E+00   6.269460E+00
 17  15   4.679465E+00   1.210937E+02   3.893336E+03   5.375980E+00   6.266075E+00
 17  16   4.753847E+00   1.227567E+02   3.917279E+03   5.362783E+00   6.257480E+00
 17  17   1.036404E+01   2.335571E+02   5.581615E+03   4.817690E+00   5.902516E+00
 18   1   2.478707E+00   7.262837E+01   2.864022E+03   5.840978E+00   6.568881E+00
 18   2   2.474421E+00   7.244765E+01   2.857163E+03   5.840065E+00   6.568287E+00
 18   3   4.655598E+00   1.204087E+02   3.880631E+03   5.378605E+00   6.267784E+00
 18   4   4.672491E+00   1.208719E+02   3.893415E+03   5.378120E+00   6.267468E+00
 18   5   2.521320E+00   7.353339E+01   2.873387E+03   5.820571E+00   6.555592E+00
 18   6   2.493390E+00   7.282844E+01   2.861855E+03   5.831231E+00   6.562534E+00
 18   7   4.675575E+00   1.210260E+02   3.900714E+03   5.379750E+00   6.268530E+00
 18   8   2.489591E+00   7.286273E+01   2.867819E+03   5.836463E+00   6.565941E+00
 18   9   2.491200E+00   7.297393E+01   2.874000E+03   5.838644E+00   6.567362E+00
 18  10   2.476398E+00   7.258893E+01   2.861830E+03   5.841177E+00   6.569011E+00
 18  11   2.466323E+00   7.224667E+01   2.854213E+03   5.843435E+00   6.570481E+00
 18  12   4.659188E+00   1.204205E+02   3.878833E+03   5.376952E+00   6.266707E+00
 18  13   4.661313E+00   1.205965E+02   3.886554E+03   5.378989E+00   6.268034E+00
 18  14   2.493903E+00   7.309925E+01   2.875965E+03   5.837940E+00   6.566903E+00
 18  15   2.489308E+00   7.279171E+01   2.861450E+03   5.833358E+00   6.563919E+00
 18  16   2.519137E+00   7.352520E+01   2.874760E+03   5.822515E+00   6.556858E+00
 18  17   4.671748E+00   1.209954E+02   3.901186E+03   5.381005E+00   6.269347E+00
 18  18   2.489912E+00   7.286345E+01   2.870091E+03   5.837495E+00   6.566613E+00
 19   1   4.649473E+00   1.204659E+02   3.887732E+03   5.382814E+00   6.270525E+00
 19   2   4.642429E+00   1.201800E+02   3.878920E+03   5.381848E+00   6.269896E+00
 19   3   1.033992E+01   2.323577E+02   5.542398E+03   4.812019E+00   5.898823E+00
 19   4   1.037943E+01   2.333038E+02   5.560326E+03   4.811303E+00   5.898357E+00
 19   5   4.761530E+00   1.227205E+02   3.910240E+03   5.358228E+00   6.254514E+00
 19   6   4.690292E+00   1.210906E+02   3.888615E+03   5.371302E+00   6.263028E+00
 19   7   1.038449E+01   2.335827E+02   5.572496E+03   4.813350E+00   5.899690E+00
 19   8   4.676490E+00   1.210071E+02   3.894838E+03   5.377411E+00   6.267006E+00
 19   9   4.674642E+00   1.210796E+02   3.900659E+03   5.379946E+00   6.268657E+00
 19  10   4.647468E+00   1.204670E+02   3.886615E+03   5.382972E+00   6.270627E+00
 19  11   4.621842E+00   1.197148E+02   3.873286E+03   5.385967E+00   6.272578E+00
 19  12   1.034746E+01   2.323472E+02   5.536942E+03   4.809955E+00   5.897479E+00
 19  13   1.034969E+01   2.326659E+02   5.549650E+03   4.812450E+00   5.899104E+00
 19  14   4.683265E+00   1.213896E+02   3.905140E+03   5.378908E+00   6.267981E+00
 19  15   4.680053E+00   1.209814E+02   3.887193E+03   5.373709E+00   6.264596E+00
 19  16   4.754493E+00   1.226438E+02   3.911087E+03   5.360499E+00   6.255993E+00
 19  17   1.037037E+01   2.334170E+02   5.572088E+03   4.814900E+00   5.900699E+00
 19  18   4.672311E+00   1.208827E+02   3.895030E+03   5.378739E+00   6.267871E+00
 19  19   1.037671E+01   2.332770E+02   5.562569E+03   4.812108E+00   5.898881E+00
 20   1   2.478419E+00   7.263784E+01   2.862753E+03   5.840441E+00   6.568531E+00
 20   2   2.474137E+00   7.245721E+01   2.855899E+03   5.839528E+00   6.567937E+00
 20   3   4.660038E+00   1.205572E+02   3.882355E+03   5.377868E+00   6.267304E+00
 20   4   4.676952E+00   1.210211E+02   3.895149E+03   5.377383E+00   6.266988E+00
 20   5   2.521144E+00   7.354647E+01   2.872229E+03   5.820027E+00   6.555238E+00
 20   6   2.493149E+00   7.283940E+01   2.860633E+03   5.830690E+00   6.562182E+00
 20   7   4.680035E+00   1.211752E+02   3.902451E+03   5.379015E+00   6.268051E+00
 20   8   2.489326E+00   7.287295E+01   2.866571E+03   5.835925E+00   6.565590E+00
 20   9   2.490917E+00   7.298363E+01   2.872732E+03   5.838107E+00   6.567012E+00
 20  10   2.476118E+00   7.259863E+01   2.860572E+03   5.840641E+00   6.568661E+00
 20  11   2.466020E+00   7.225562E+01   2.852931E+03   5.842898E+00   6.570132E+00
 20  12   4.663630E+00   1.205690E+02   3.880552E+03   5.376214E+00   6.266226E+00
 20  13   4.665751E+00   1.207450E+02   3.888275E+03   5.378252E+00   6.267554E+00
 20  14   2.493632E+00   7.310934E+01   2.874711E+03   5.837403E+00   6.566553E+00
 20  15   2.489057E+00   7.280238E+01   2.860220E+03   5.832819E+00   6.563568E+00
 20  16   2.518950E+00   7.353795E+01   2.873592E+03   5.821973E+00   6.556505E+00
 20  17   4.676189E+00   1.211442E+02   3.902913E+03   5.380270E+00   6.268868E+00
 20  18   2.489630E+00   7.287316E+01   2.868823E+03   5.836957E+00   6.566263E+00
 20  19   4.676766E+00   1.210317E+02   3.896760E+03   5.378002E+00   6.267391E+00
 20  20   2.489365E+00   7.288340E+01   2.867576E+03   5.836419E+00   6.565912E+00
 21   1   2.479132E+00   7.261136E+01   2.859680E+03   5.838450E+00   6.567235E+00
 21   2   2.474851E+00   7.243085E+01   2.852836E+03   5.837536E+00   6.566640E+00
 21   3   4.665113E+00   1.205994E+02   3.879824E+03   5.375516E+00   6.265772E+00
 21   4   4.682049E+00   1.210636E+02   3.892610E+03   5.375030E+00   6.265456E+00
 21   5   2.521956E+00   7.352199E+01   2.869204E+03   5.818021E+00   6.553931E+00
 21   6   2.493902E+00   7.281377E+01   2.857586E+03   5.828692E+00   6.560881E+00
 21   7   4.685132E+00   1.212177E+02   3.899910E+03   5.376662E+00   6.266519E+00
 21   8   2.490060E+00   7.284687E+01   2.863507E+03   5.833930E+00   6.564291E+00
 21   9   2.491637E+00   7.295716E+01   2.869649E+03   5.836114E+00   6.565713E+00
 21  10   2.476837E+00   7.257238E+01   2.857509E+03   5.838649E+00   6.567364E+00
 21  11   2.466717E+00   7.222892E+01   2.849862E+03   5.840910E+00   6.568837E+00
 21  12   4.668708E+00   1.206112E+02   3.878016E+03   5.373860E+00   6.264694E+00
 21  13   4.670826E+00   1.207871E+02   3.885737E+03   5.375900E+00   6.266022E+00
 21  14   2.494364E+00   7.308314E+01   2.871634E+03   5.835408E+00   6.565254E+00
 21  15   2.489802E+00   7.277660E+01   2.857169E+03   5.830822E+00   6.562268E+00
 21  16   2.519754E+00   7.351329E+01   2.870560E+03   5.819967E+00   6.555199E+00
 21  17   4.681271E+00   1.211865E+02   3.900367E+03   5.377919E+00   6.267337E+00
 21  18   2.490350E+00   7.284669E+01   2.865743E+03   5.834963E+00   6.564964E+00
 21  19   4.681859E+00   1.210741E+02   3.894219E+03   5.375649E+00   6.265859E+00
 21  20   2.490100E+00   7.285734E+01   2.864512E+03   5.834424E+00   6.564613E+00
 21  21   2.490844E+00   7.283155E+01   2.861459E+03   5.832429E+00   6.563314E+00
 22   1   2.473901E+00   7.247250E+01   2.858990E+03   5.841287E+00   6.569083E+00
 22   2   2.469624E+00   7.229219E+01   2.852145E+03   5.840376E+00   6.568489E+00
 22   3   4.648085E+00   1.201862E+02   3.875530E+03   5.379046E+00   6.268071E+00
 22   4   4.664952E+00   1.206485E+02   3.888299E+03   5.378561E+00   6.267755E+00
 22   5   2.516467E+00   7.337654E+01   2.868390E+03   5.820884E+00   6.555796E+00
 22   6   2.488570E+00   7.267252E+01   2.856850E+03   5.831543E+00   6.562737E+00
 22   7   4.668030E+00   1.208023E+02   3.895584E+03   5.380190E+00   6.268816E+00
 22   8   2.484771E+00   7.270655E+01   2.862791E+03   5.836774E+00   6.566143E+00
 22   9   2.486371E+00   7.281737E+01   2.868954E+03   5.838954E+00   6.567563E+00
 22  10   2.471598E+00   7.243322E+01   2.856804E+03   5.841486E+00   6.569212E+00
 22  11   2.461536E+00   7.209147E+01   2.849193E+03   5.843745E+00   6.570683E+00
 22  12   4.651669E+00   1.201979E+02   3.873736E+03   5.377393E+00   6.266995E+00
 22  13   4.653788E+00   1.203735E+02   3.881442E+03   5.379429E+00   6.268321E+00
 22  14   2.489073E+00   7.294255E+01   2.870920E+03   5.838249E+00   6.567104E+00
 22  15   2.484493E+00   7.263581E+01   2.856441E+03   5.833670E+00   6.564122E+00
 22  16   2.514284E+00   7.336828E+01   2.869756E+03   5.822828E+00   6.557062E+00
 22  17   4.664205E+00   1.207717E+02   3.896050E+03   5.381444E+00   6.269633E+00
 22  18   2.485086E+00   7.270711E+01   2.865053E+03   5.837806E+00   6.566815E+00
 22  19   4.664771E+00   1.206592E+02   3.889908E+03   5.379179E+00   6.268158E+00
 22  20   2.484810E+00   7.271697E+01   2.863793E+03   5.837267E+00   6.566465E+00
 22  21   2.485533E+00   7.269066E+01   2.860725E+03   5.835274E+00   6.565167E+00
 22  22   2.480272E+00   7.255115E+01   2.860026E+03   5.838117E+00   6.567018E+00
 23   1   4.650422E+00   1.205929E+02   3.893663E+03   5.384573E+00   6.271670E+00
 23   2   4.643375E+00   1.203067E+02   3.884836E+03   5.383606E+00   6.271041E+00
 23   3   1.033818E+01   2.325462E+02   5.551428E+03   4.814178E+00   5.900229E+00
 23   4   1.037768E+01   2.334930E+02   5.569391E+03   4.813464E+00   5.899764E+00
 23   5   4.762436E+00   1.228486E+02   3.916219E+03   5.360002E+00   6.255670E+00
 23   6   4.691222E+00   1.212179E+02   3.894551E+03   5.373065E+00   6.264176E+00
 23   7   1.038275E+01   2.337719E+02   5.581573E+03   4.815509E+00   5.901096E+00
 23   8   4.677431E+00   1.211344E+02   3.900782E+03   5.379173E+00   6.268154E+00
 23   9   4.675592E+00   1.212071E+02   3.906616E+03   5.381707E+00   6.269804E+00
 23  10   4.648412E+00   1.205937E+02   3.892542E+03   5.384731E+00   6.271773E+00
 23  11   4.622794E+00   1.198412E+02   3.879190E+03   5.387721E+00   6.273720E+00
 23  12   1.034573E+01   2.325359E+02   5.545973E+03   4.812115E+00   5.898886E+00
 23  13   1.034796E+01   2.328548E+02   5.558696E+03   4.814610E+00   5.900510E+00
 23  14   4.684211E+00   1.215172E+02   3.911105E+03   5.380671E+00   6.269129E+00
 23  15   4.680986E+00   1.211086E+02   3.893128E+03   5.375473E+00   6.265744E+00
 23  16   4.755405E+00   1.227720E+02   3.917067E+03   5.362273E+00   6.257148E+00
 23  17   1.036864E+01   2.336063E+02   5.581164E+03   4.817059E+00   5.902105E+00
 23  18   4.673261E+00   1.210101E+02   3.900977E+03   5.380499E+00   6.269017E+00
 23  19   1.037497E+01   2.334662E+02   5.571636E+03   4.814268E+00   5.900287E+00
 23  20   4.677707E+00   1.211590E+02   3.902706E+03   5.379763E+00   6.268538E+00
 23  21   4.682793E+00   1.212013E+02   3.900160E+03   5.377412E+00   6.267007E+00
 23  22   4.665716E+00   1.207864E+02   3.895843E+03   5.380938E+00   6.269303E+00
 23  23   1.037324E+01   2.336555E+02   5.580713E+03   4.816427E+00   5.901693E+00
 24   1   2.507814E+00   7.327159E+01   2.867473E+03   5.825369E+00   6.558716E+00
 24   2   2.503498E+00   7.308972E+01   2.860618E+03   5.824452E+00   6.558120E+00
 24   3   4.738861E+00   1.221661E+02   3.895546E+03   5.359602E+00   6.255409E+00
 24   4   4.756087E+00   1.226369E+02   3.908382E+03   5.359111E+00   6.255090E+00
 24   5   2.551595E+00   7.420307E+01   2.877237E+03   5.804830E+00   6.545341E+00
 24   6   2.522947E+00   7.348084E+01   2.865453E+03   5.815562E+00   6.552330E+00
 24   7   4.759199E+00   1.227927E+02   3.915741E+03   5.360755E+00   6.256160E+00
 24   8   2.518964E+00   7.351181E+01   2.871352E+03   5.820825E+00   6.555758E+00
 24   9   2.520490E+00   7.362122E+01   2.877461E+03   5.823020E+00   6.557187E+00
 24  10   2.505526E+00   7.323330E+01   2.865334E+03   5.825568E+00   6.558846E+00
 24  11   2.495192E+00   7.288377E+01   2.857597E+03   5.827844E+00   6.560328E+00
 24  12   4.742509E+00   1.221776E+02   3.893682E+03   5.357934E+00   6.254323E+00
 24  13   4.744635E+00   1.223555E+02   3.901465E+03   5.359988E+00   6.255660E+00
 24  14   2.523299E+00   7.374995E+01   2.879493E+03   5.822308E+00   6.556724E+00
 24  15   2.518762E+00   7.344247E+01   2.865019E+03   5.817701E+00   6.553723E+00
 24  16   2.549326E+00   7.419321E+01   2.878576E+03   5.806786E+00   6.546615E+00
 24  17   4.755219E+00   1.227598E+02   3.916185E+03   5.362020E+00   6.256984E+00
 24  18   2.519189E+00   7.350959E+01   2.873534E+03   5.821865E+00   6.556435E+00
 24  19   4.755869E+00   1.226470E+02   3.909996E+03   5.359735E+00   6.255496E+00
 24  20   2.519007E+00   7.352248E+01   2.872371E+03   5.821322E+00   6.556081E+00
 24  21   2.519814E+00   7.349791E+01   2.869343E+03   5.819317E+00   6.554775E+00
 24  22   2.514338E+00   7.335275E+01   2.868535E+03   5.822179E+00   6.556639E+00
 24  23   4.756778E+00   1.227751E+02   3.915974E+03   5.361509E+00   6.256651E+00
 24  24   2.549405E+00   7.417818E+01   2.877368E+03   5.806132E+00   6.546190E+00
 25   1   2.504978E+00   7.313488E+01   2.861755E+03   5.824154E+00   6.557925E+00
 25   2   2.500668E+00   7.295334E+01   2.854916E+03   5.823238E+00   6.557329E+00
 25   3   4.735504E+00   1.219777E+02   3.888762E+03   5.358246E+00   6.254526E+00
 25   4   4.752719E+00   1.224479E+02   3.901575E+03   5.357755E+00   6.254206E+00
 25   5   2.548756E+00   7.406571E+01   2.871532E+03   5.803608E+00   6.544546E+00
 25   6   2.520112E+00   7.334412E+01   2.859754E+03   5.814345E+00   6.551538E+00
 25   7   4.755828E+00   1.226035E+02   3.908922E+03   5.359399E+00   6.255277E+00
 25   8   2.516125E+00   7.337486E+01   2.865634E+03   5.819609E+00   6.554966E+00
 25   9   2.517641E+00   7.348390E+01   2.871723E+03   5.821803E+00   6.556395E+00
 25  10   2.502696E+00   7.309678E+01   2.859624E+03   5.824352E+00   6.558055E+00
 25  11   2.492364E+00   7.274757E+01   2.851897E+03   5.826631E+00   6.559539E+00
 25  12   4.739149E+00   1.219892E+02   3.886899E+03   5.356579E+00   6.253440E+00
 25  13   4.741270E+00   1.221668E+02   3.894669E+03   5.358632E+00   6.254777E+00
 25  14   2.520453E+00   7.361259E+01   2.873755E+03   5.821090E+00   6.555930E+00
 25  15   2.515929E+00   7.330578E+01   2.859318E+03   5.816484E+00   6.552931E+00
 25  16   2.546485E+00   7.405579E+01   2.872865E+03   5.805564E+00   6.545819E+00
 25  17   4.751844E+00   1.225705E+02   3.909362E+03   5.360664E+00   6.256101E+00
 25  18   2.516342E+00   7.337244E+01   2.867806E+03   5.820650E+00   6.555643E+00
 25  19   4.752499E+00   1.224579E+02   3.903185E+03   5.358379E+00   6.254613E+00
 25  20   2.516168E+00   7.338553E+01   2.866652E+03   5.820106E+00   6.555289E+00
 25  21   2.516980E+00   7.336113E+01   2.863634E+03   5.818100E+00   6.553983E+00
 25  22   2.511499E+00   7.321594E+01   2.862820E+03   5.820964E+00   6.555848E+00
 25  23   4.753403E+00   1.225858E+02   3.909151E+03   5.360153E+00   6.255768E+00
 25  24   2.546566E+00   7.404083E+01   2.871660E+03   5.804910E+00   6.545394E+00
 25  25   2.543732E+00   7.390377E+01   2.865967E+03   5.803688E+00   6.544598E+00
 26   1   4.649634E+00   1.204937E+02   3.888299E+03   5.382950E+00   6.270613E+00
 26   2   4.642591E+00   1.202077E+02   3.879485E+03   5.381984E+00   6.269984E+00
 26   3   1.034143E+01   2.324440E+02   5.543830E+03   4.812150E+00   5.898908E+00
 26   4   1.038095E+01   2.333905E+02   5.561764E+03   4.811435E+00   5.898442E+00
 26   5   4.761715E+00   1.227493E+02   3.910828E+03   5.358364E+00   6.254603E+00
 26   6   4.690463E+00   1.211188E+02   3.889188E+03   5.371437E+00   6.263116E+00
 26   7   1.038601E+01   2.336694E+02   5.573938E+03   4.813482E+00   5.899776E+00
 26   8   4.676656E+00   1.210351E+02   3.895408E+03   5.377546E+00   6.267095E+00
 26   9   4.674805E+00   1.211075E+02   3.901228E+03   5.380082E+00   6.268745E+00
 26  10   4.647630E+00   1.204947E+02   3.887183E+03   5.383107E+00   6.270716E+00
 26  11   4.622000E+00   1.197422E+02   3.873847E+03   5.386101E+00   6.272666E+00
 26  12   1.034897E+01   2.324335E+02   5.538372E+03   4.810086E+00   5.897564E+00
 26  13   1.035120E+01   2.327523E+02   5.551083E+03   4.812582E+00   5.899189E+00
 26  14   4.683431E+00   1.214177E+02   3.905713E+03   5.379044E+00   6.268070E+00
 26  15   4.680222E+00   1.210095E+02   3.887765E+03   5.373845E+00   6.264684E+00
 26  16   4.754676E+00   1.226726E+02   3.911673E+03   5.360635E+00   6.256082E+00
 26  17   1.037188E+01   2.335035E+02   5.573527E+03   4.815032E+00   5.900785E+00
 26  18   4.672474E+00   1.209106E+02   3.895597E+03   5.378874E+00   6.267959E+00
 26  19   1.037822E+01   2.333636E+02   5.564008E+03   4.812239E+00   5.898966E+00
 26  20   4.676933E+00   1.210597E+02   3.897331E+03   5.378138E+00   6.267479E+00
 26  21   4.682028E+00   1.211022E+02   3.894791E+03   5.375785E+00   6.265947E+00
 26  22   4.664935E+00   1.206871E+02   3.890476E+03   5.379314E+00   6.268246E+00
 26  23   1.037648E+01   2.335528E+02   5.573076E+03   4.814399E+00   5.900373E+00
 26  24   4.756052E+00   1.226758E+02   3.910582E+03   5.359871E+00   6.255585E+00
 26  25   4.752684E+00   1.224867E+02   3.903771E+03   5.358515E+00   6.254701E+00
 26  26   1.037974E+01   2.334503E+02   5.565447E+03   4.812371E+00   5.899052E+00
 27   1   2.492114E+00   7.296443E+01   2.868169E+03   5.835045E+00   6.565017E+00
 27   2   2.487813E+00   7.278306E+01   2.861304E+03   5.834130E+00   6.564422E+00
 27   3   4.691697E+00   1.212355E+02   3.890051E+03   5.371311E+00   6.263034E+00
 27   4   4.708732E+00   1.217022E+02   3.902868E+03   5.370824E+00   6.262717E+00
 27   5   2.535213E+00   7.388083E+01   2.877695E+03   5.814586E+00   6.551694E+00
 27   6   2.506983E+00   7.316834E+01   2.866055E+03   5.825273E+00   6.558654E+00
 27   7   4.711830E+00   1.218571E+02   3.910198E+03   5.372460E+00   6.263782E+00
 27   8   2.503110E+00   7.320135E+01   2.872001E+03   5.830519E+00   6.562070E+00
 27   9   2.504688E+00   7.331198E+01   2.878161E+03   5.832706E+00   6.563494E+00
 27  10   2.489811E+00   7.292537E+01   2.865996E+03   5.835244E+00   6.565147E+00
 27  11   2.479627E+00   7.257992E+01   2.858325E+03   5.837508E+00   6.566622E+00
 27  12   4.695312E+00   1.212472E+02   3.888225E+03   5.369652E+00   6.261954E+00
 27  13   4.697440E+00   1.214241E+02   3.895979E+03   5.371696E+00   6.263285E+00
 27  14   2.507434E+00   7.343875E+01   2.880155E+03   5.831999E+00   6.563034E+00
 27  15   2.502857E+00   7.313091E+01   2.865640E+03   5.827406E+00   6.560043E+00
 27  16   2.532995E+00   7.387197E+01   2.879058E+03   5.816535E+00   6.552964E+00
 27  17   4.707941E+00   1.218256E+02   3.910661E+03   5.373719E+00   6.264602E+00
 27  18   2.503395E+00   7.320094E+01   2.874240E+03   5.831554E+00   6.562744E+00
 27  19   4.708538E+00   1.217127E+02   3.904484E+03   5.371445E+00   6.263121E+00
 27  20   2.503150E+00   7.321188E+01   2.873012E+03   5.831014E+00   6.562392E+00
 27  21   2.503905E+00   7.318613E+01   2.869949E+03   5.829015E+00   6.561091E+00
 27  22   2.498555E+00   7.304423E+01   2.869212E+03   5.831865E+00   6.562947E+00
 27  23   4.709473E+00   1.218405E+02   3.910450E+03   5.373211E+00   6.264271E+00
 27  24   2.533058E+00   7.385657E+01   2.877837E+03   5.815884E+00   6.552540E+00
 27  25   2.530211E+00   7.371919E+01   2.872110E+03   5.814665E+00   6.551746E+00
 27  26   4.708709E+00   1.217410E+02   3.905060E+03   5.371581E+00   6.263210E+00
 27  27   2.517037E+00   7.354252E+01   2.878453E+03   5.825597E+00   6.558865E+00
 28   1   2.473905E+00   7.260349E+01   2.864316E+03   5.843877E+00   6.570769E+00
 28   2   2.469627E+00   7.242290E+01   2.857454E+03   5.842963E+00   6.570174E+00
 28   3   4.645543E+00   1.203662E+02   3.881824E+03   5.381871E+00   6.269910E+00
 28   4   4.662398E+00   1.208291E+02   3.894617E+03   5.381387E+00   6.269596E+00
 28   5   2.516411E+00   7.350803E+01   2.873705E+03   5.823487E+00   6.557491E+00
 28   6   2.488550E+00   7.280356E+01   2.862156E+03   5.834135E+00   6.564425E+00
 28   7   4.665477E+00   1.209830E+02   3.901914E+03   5.383017E+00   6.270657E+00
 28   8   2.484763E+00   7.283775E+01   2.868118E+03   5.839365E+00   6.567831E+00
 28   9   2.486372E+00   7.294893E+01   2.874301E+03   5.841546E+00   6.569251E+00
 28  10   2.471599E+00   7.256396E+01   2.862123E+03   5.844077E+00   6.570899E+00
 28  11   2.461549E+00   7.222205E+01   2.854499E+03   5.846329E+00   6.572366E+00
 28  12   4.649126E+00   1.203781E+02   3.880031E+03   5.380217E+00   6.268834E+00
 28  13   4.651247E+00   1.205538E+02   3.887751E+03   5.382254E+00   6.270160E+00
 28  14   2.489068E+00   7.307405E+01   2.876269E+03   5.840845E+00   6.568795E+00
 28  15   2.484477E+00   7.276677E+01   2.861752E+03   5.836263E+00   6.565811E+00
 28  16   2.514234E+00   7.349982E+01   2.875078E+03   5.825431E+00   6.558757E+00
 28  17   4.661661E+00   1.209524E+02   3.902386E+03   5.384271E+00   6.271474E+00
 28  18   2.485088E+00   7.283859E+01   2.870389E+03   5.840395E+00   6.568502E+00
 28  19   4.662220E+00   1.208399E+02   3.896230E+03   5.382005E+00   6.269998E+00
 28  20   2.484802E+00   7.284816E+01   2.869120E+03   5.839859E+00   6.568152E+00
 28  21   2.485518E+00   7.282169E+01   2.866041E+03   5.837866E+00   6.566855E+00
 28  22   2.480270E+00   7.268230E+01   2.865347E+03   5.840705E+00   6.568703E+00
 28  23   4.663170E+00   1.209671E+02   3.902177E+03   5.383765E+00   6.271144E+00
 28  24   2.514286E+00   7.348422E+01   2.873852E+03   5.824782E+00   6.558334E+00
 28  25   2.511443E+00   7.334716E+01   2.868122E+03   5.823565E+00   6.557542E+00
 28  26   4.662383E+00   1.208677E+02   3.896798E+03   5.382141E+00   6.270086E+00
 28  27   2.498535E+00   7.317583E+01   2.874548E+03   5.834461E+00   6.564637E+00
 28  28   2.480273E+00   7.281359E+01   2.870687E+03   5.843297E+00   6.570391E+00
 29   1   4.634202E+00   1.200418E+02   3.875033E+03   5.382862E+00   6.270556E+00
 29   2   4.627182E+00   1.197569E+02   3.866251E+03   5.381897E+00   6.269928E+00
 29   3   1.030702E+01   2.315552E+02   5.525326E+03   4.812149E+00   5.898907E+00
 29   4   1.034641E+01   2.324981E+02   5.543199E+03   4.811433E+00   5.898441E+00
 29   5   4.745909E+00   1.222887E+02   3.897491E+03   5.358278E+00   6.254547E+00
 29   6   4.674894E+00   1.206644E+02   3.875924E+03   5.371352E+00   6.263061E+00
 29   7   1.035146E+01   2.327760E+02   5.555328E+03   4.813479E+00   5.899774E+00
 29   8   4.661134E+00   1.205811E+02   3.882120E+03   5.377460E+00   6.267038E+00
 29   9   4.659289E+00   1.206534E+02   3.887918E+03   5.379994E+00   6.268688E+00
 29  10   4.632205E+00   1.200429E+02   3.873919E+03   5.383020E+00   6.270659E+00
 29  11   4.606659E+00   1.192932E+02   3.860632E+03   5.386015E+00   6.272609E+00
 29  12   1.031454E+01   2.315446E+02   5.519889E+03   4.810086E+00   5.897564E+00
 29  13   1.031677E+01   2.318623E+02   5.532553E+03   4.812580E+00   5.899188E+00
 29  14   4.667887E+00   1.209624E+02   3.892386E+03   5.378956E+00   6.268012E+00
 29  15   4.664687E+00   1.205556E+02   3.874504E+03   5.373759E+00   6.264628E+00
 29  16   4.738894E+00   1.222123E+02   3.898332E+03   5.360549E+00   6.256026E+00
 29  17   1.033737E+01   2.326108E+02   5.554916E+03   4.815029E+00   5.900783E+00
 29  18   4.656966E+00   1.204571E+02   3.882309E+03   5.378788E+00   6.267903E+00
 29  19   1.034370E+01   2.324713E+02   5.545434E+03   4.812237E+00   5.898965E+00
 29  20   4.661410E+00   1.206057E+02   3.884036E+03   5.378051E+00   6.267423E+00
 29  21   4.666488E+00   1.206480E+02   3.881506E+03   5.375699E+00   6.265891E+00
 29  22   4.649452E+00   1.202344E+02   3.877206E+03   5.379229E+00   6.268190E+00
 29  23   1.034196E+01   2.326599E+02   5.554467E+03   4.814396E+00   5.900371E+00
 29  24   4.740266E+00   1.222155E+02   3.897245E+03   5.359786E+00   6.255529E+00
 29  25   4.736908E+00   1.220271E+02   3.890459E+03   5.358430E+00   6.254646E+00
 29  26   1.034521E+01   2.325577E+02   5.546867E+03   4.812369E+00   5.899051E+00
 29  27   4.693080E+00   1.212843E+02   3.891739E+03   5.371494E+00   6.263153E+00
 29  28   4.646908E+00   1.204145E+02   3.883502E+03   5.382053E+00   6.270029E+00
 29  29   1.031079E+01   2.316685E+02   5.528352E+03   4.812367E+00   5.899050E+00
 30   1   2.457161E+00   7.206323E+01   2.847838E+03   5.845542E+00   6.571853E+00
 30   2   2.452911E+00   7.188393E+01   2.841019E+03   5.844631E+00   6.571260E+00
 30   3   4.613650E+00   1.194481E+02   3.861226E+03   5.384135E+00   6.271385E+00
 30   4   4.630389E+00   1.199075E+02   3.873952E+03   5.383651E+00   6.271070E+00
 30   5   2.499368E+00   7.296050E+01   2.857215E+03   5.825173E+00   6.558589E+00
 30   6   2.471701E+00   7.226152E+01   2.845713E+03   5.835812E+00   6.565517E+00
 30   7   4.633447E+00   1.200603E+02   3.881200E+03   5.385278E+00   6.272129E+00
 30   8   2.467943E+00   7.229562E+01   2.851628E+03   5.841036E+00   6.568919E+00
 30   9   2.469543E+00   7.240606E+01   2.857770E+03   5.843214E+00   6.570337E+00
 30  10   2.454869E+00   7.202399E+01   2.845656E+03   5.845741E+00   6.571983E+00
 30  11   2.444889E+00   7.168466E+01   2.838076E+03   5.847994E+00   6.573450E+00
 30  12   4.617208E+00   1.194599E+02   3.859453E+03   5.382485E+00   6.270310E+00
 30  13   4.619316E+00   1.196343E+02   3.867119E+03   5.384517E+00   6.271634E+00
 30  14   2.472218E+00   7.253025E+01   2.859725E+03   5.842511E+00   6.569879E+00
 30  15   2.467657E+00   7.222509E+01   2.845305E+03   5.837937E+00   6.566901E+00
 30  16   2.497207E+00   7.295241E+01   2.858575E+03   5.827114E+00   6.559853E+00
 30  17   4.629659E+00   1.200301E+02   3.881662E+03   5.386530E+00   6.272944E+00
 30  18   2.468266E+00   7.229650E+01   2.853886E+03   5.842066E+00   6.569589E+00
 30  19   4.630213E+00   1.199182E+02   3.875553E+03   5.384268E+00   6.271472E+00
 30  20   2.467981E+00   7.230596E+01   2.852623E+03   5.841529E+00   6.569240E+00
 30  21   2.468691E+00   7.227962E+01   2.849566E+03   5.839539E+00   6.567944E+00
 30  22   2.463481E+00   7.214134E+01   2.848873E+03   5.842375E+00   6.569791E+00
 30  23   4.631157E+00   1.200446E+02   3.881458E+03   5.386024E+00   6.272615E+00
 30  24   2.497258E+00   7.293690E+01   2.857357E+03   5.826466E+00   6.559431E+00
 30  25   2.494434E+00   7.280080E+01   2.851663E+03   5.825252E+00   6.558640E+00
 30  26   4.630374E+00   1.199459E+02   3.876117E+03   5.384403E+00   6.271560E+00
 30  27   2.481620E+00   7.263107E+01   2.858031E+03   5.836136E+00   6.565728E+00
 30  28   2.463485E+00   7.227177E+01   2.854173E+03   5.844961E+00   6.571475E+00
 30  29   4.615006E+00   1.194960E+02   3.862894E+03   5.384317E+00   6.271503E+00
 30  30   2.446810E+00   7.173395E+01   2.837752E+03   5.846628E+00   6.572560E+00
 
+ van der Waals energies, forces and stresses (Ry,bohr)
  Evdw(total,Ry)   =  -1.382949171710E-01
  Evdw(C6,Ry)      =  -7.167202138790E-02
  Evdw(C8,Ry)      =  -3.835174247415E-02
  Evdw(C10,Ry)     =  -2.827115330894E-02
  Fvdw (001,Ry/bohr) =  -5.599138899570E-06  -6.580620053020E-05  -2.068113769770E-06
  Fvdw (002,Ry/bohr) =   1.028021067880E-06  -9.040496480821E-05   1.092310676232E-05
  Fvdw (003,Ry/bohr) =  -9.118742640468E-06  -3.950212038630E-05  -2.178293656626E-05
  Fvdw (004,Ry/bohr) =  -5.783219258496E-05   3.674817144899E-05  -3.922493120438E-05
  Fvdw (005,Ry/bohr) =   8.078092730034E-05  -9.001414808387E-06  -2.854266136626E-05
  Fvdw (006,Ry/bohr) =  -8.056574505207E-05   9.727860907947E-06   4.767791050240E-05
  Fvdw (007,Ry/bohr) =  -1.518501612683E-06   2.682239704916E-05  -8.419730114819E-06
  Fvdw (008,Ry/bohr) =   6.651267020675E-05   1.256674431511E-05   4.551918213813E-05
  Fvdw (009,Ry/bohr) =   7.403325716365E-05  -1.162719011986E-05  -4.743652184638E-05
  Fvdw (010,Ry/bohr) =  -2.329740733828E-05   6.132164143692E-05   3.849884381928E-05
  Fvdw (011,Ry/bohr) =  -1.097461022681E-05   8.797722295807E-05  -1.696248925290E-05
  Fvdw (012,Ry/bohr) =  -4.270951198651E-05   3.049496668880E-05  -6.800846246958E-06
  Fvdw (013,Ry/bohr) =  -2.554165422070E-06   8.534492416675E-06  -1.077747334597E-05
  Fvdw (014,Ry/bohr) =  -1.351139510438E-05  -4.363332071972E-05   5.578937970101E-05
  Fvdw (015,Ry/bohr) =  -1.259196774419E-05   4.284684935364E-05   5.601507375310E-05
  Fvdw (016,Ry/bohr) =   2.260484103628E-06   9.727302186846E-05  -3.291236562730E-05
  Fvdw (017,Ry/bohr) =  -4.863313915910E-05  -8.339738933589E-05   8.805014103562E-07
  Fvdw (018,Ry/bohr) =   8.670244957196E-06  -1.012216804781E-04  -2.110364904166E-05
  Fvdw (019,Ry/bohr) =  -1.048224636109E-05  -2.513342206781E-05  -3.832286802176E-05
  Fvdw (020,Ry/bohr) =  -6.770759421774E-06   2.708894995081E-05  -7.656560355251E-05
  Fvdw (021,Ry/bohr) =  -4.327400042815E-05  -9.791502707937E-06   5.916349291464E-05
  Fvdw (022,Ry/bohr) =   5.614316068945E-06   1.118462074835E-04   8.419894246998E-06
  Fvdw (023,Ry/bohr) =  -4.281692046653E-06   9.352196991385E-05  -1.496546620099E-05
  Fvdw (024,Ry/bohr) =   1.658577021157E-07  -9.408607368436E-05   3.607116374121E-05
  Fvdw (025,Ry/bohr) =   9.106569128799E-05  -5.907254931100E-06   3.282191593731E-05
  Fvdw (026,Ry/bohr) =  -6.748875572629E-05  -4.395948798379E-05  -3.648519758548E-06
  Fvdw (027,Ry/bohr) =  -5.817860584281E-05   3.133024673879E-06  -5.581323305646E-05
  Fvdw (028,Ry/bohr) =   7.498425527588E-05   1.346851531184E-05   2.355365647267E-05
  Fvdw (029,Ry/bohr) =   1.048037872848E-05  -2.437361058031E-05   8.066936404476E-07
  Fvdw (030,Ry/bohr) =   8.378647373500E-05  -1.552640263571E-05   9.206593933065E-06
  sigma_vdw (Ry/bohr**3) =  -1.110256697527E-04  -5.822269275025E-09  -6.926861706120E-09  
                            -5.822269275025E-09  -1.108038992542E-04  -8.079798341896E-08  
                            -6.926861706120E-09  -8.079798341896E-08  -1.116246864997E-04  
  sigma_vdw (GPa) =  -1.633243714642E+00  -8.564852362134E-05  -1.018976365458E-04  
                     -8.564852362134E-05  -1.629981358526E+00  -1.188579171544E-03  
                     -1.018976365458E-04  -1.188579171544E-03  -1.642055553735E+00  
 

!    total energy              =    -442.20819069 Ry
     Harris-Foulkes estimate   =    -442.20819069 Ry
     estimated scf accuracy    <          1.3E-09 Ry

     total all-electron energy =     -1530.652629 Ry

     The total energy is the sum of the following terms:

     one-electron contribution =    -183.61335649 Ry
     hartree contribution      =     124.84457823 Ry
     xc contribution           =     -89.41904748 Ry
     ewald contribution        =    -197.97096013 Ry
     Dispersion XDM Correction =      -0.13829492 Ry
     one-center paw contrib.   =     -95.91110992 Ry

     convergence has been achieved in  13 iterations

     Forces acting on atoms (Ry/au):

     atom    1 type  1   force =    -0.00006397   -0.00004239    0.00011248
     atom    2 type  1   force =     0.00005446    0.00004851   -0.00016628
     atom    3 type  2   force =     0.00005442   -0.00000697    0.00006894
     atom    4 type  2   force =     0.00043143   -0.00016556   -0.00031460
     atom    5 type  1   force =    -0.00035433    0.00006915    0.00027102
     atom    6 type  1   force =     0.00034692    0.00001436    0.00015766
     atom    7 type  2   force =    -0.00014964    0.00000296    0.00029384
     atom    8 type  1   force =     0.00031037    0.00007417   -0.00018521
     atom    9 type  1   force =     0.00009469   -0.00013599    0.00001836
     atom   10 type  1   force =    -0.00013479   -0.00005453    0.00007797
     atom   11 type  1   force =    -0.00014450    0.00010179   -0.00001064
     atom   12 type  2   force =     0.00003660   -0.00008597   -0.00021330
     atom   13 type  2   force =    -0.00009271    0.00008553   -0.00031320
     atom   14 type  1   force =    -0.00003852   -0.00017000    0.00012129
     atom   15 type  1   force =     0.00006045   -0.00006292    0.00025225
     atom   16 type  1   force =     0.00002740   -0.00040900    0.00001189
     atom   17 type  2   force =    -0.00019943    0.00024596   -0.00024862
     atom   18 type  1   force =     0.00008384   -0.00008027   -0.00012224
     atom   19 type  2   force =    -0.00015076   -0.00022190   -0.00025875
     atom   20 type  1   force =     0.00000888    0.00022637    0.00009432
     atom   21 type  1   force =    -0.00004643    0.00013219    0.00000217
     atom   22 type  1   force =     0.00005036   -0.00025516    0.00009869
     atom   23 type  2   force =     0.00008263   -0.00004029   -0.00016657
     atom   24 type  1   force =     0.00023460    0.00060841    0.00042923
     atom   25 type  1   force =    -0.00049602    0.00005243    0.00008565
     atom   26 type  2   force =     0.00017612   -0.00001964    0.00001797
     atom   27 type  1   force =    -0.00002238    0.00005491   -0.00023000
     atom   28 type  1   force =    -0.00025358    0.00023511    0.00011625
     atom   29 type  2   force =     0.00007565   -0.00012193   -0.00001623
     atom   30 type  1   force =     0.00001827   -0.00007934    0.00001567

     Total force =     0.001773     Total SCF correction =     0.000053


     entering subroutine stress ...

          total   stress  (Ry/bohr**3)                   (kbar)     P=   -0.23
  -0.00000068   0.00000047  -0.00000065         -0.10      0.07     -0.10
   0.00000047  -0.00000027   0.00000010          0.07     -0.04      0.02
  -0.00000065   0.00000010  -0.00000376         -0.10      0.02     -0.55


     BFGS Geometry Optimization

     number of scf cycles    =   1
     number of bfgs steps    =   0

     enthalpy new            =    -442.2081906948 Ry

     new trust radius        =       0.0007806657 bohr
     new conv_thr            =       0.0000000100 Ry

     new unit-cell volume =   1422.12075 a.u.^3 (   210.73655 Ang^3 )

CELL_PARAMETERS (alat=  1.00000000)
  11.542184345  -0.021146271  -0.026890088
  -0.021157357  11.557144865  -0.000785118
  -0.025019269  -0.000860672  10.661093268

ATOMIC_POSITIONS (crystal)
h        0.377733523   0.536796217   0.789047841
h        0.125837996   0.544237865   0.788480038
o        0.249747236   0.469112818   0.868913653
o        0.977012394   0.753332916   0.635066852
h        0.814466867   0.752637305   0.618824619
h        0.041611318   0.751766618   0.474505783
o        0.532428887   0.747351642   0.629088934
h        0.448673978   0.746783534   0.477134890
h        0.465699867   0.869319226   0.719098959
h        0.756339020   0.460314147   0.975741377
h        0.630413515   0.454425396   0.215266914
o        0.751729472   0.532709159   0.133660899
o        0.252579261   0.750236874   0.251943041
h        0.255104068   0.876425030   0.140406459
h        0.251832452   0.624972753   0.139996539
h        0.745501472   0.814214743   0.124832584
o        0.757879307   0.976742007   0.122018283
h        0.629937833   0.037997651   0.205770110
o        0.743750602   0.259177023   0.751551591
h        0.755745173   0.131923941   0.860560665
h        0.864892866   0.249013394   0.635328848
h        0.133337510   0.959794250   0.788421423
o        0.259770962   0.023743349   0.874872335
h        0.248763499   0.185916538   0.866950802
h        0.313657422   0.249984753   0.369116617
o        0.476166296   0.248794092   0.359114033
h        0.536445461   0.246553860   0.522330325
h        0.960871029   0.123574940   0.286915624
o        0.028460331   0.248705419   0.373527025
h        0.960212283   0.374898859   0.290986634



     Writing output data file crystal.save
     NEW-OLD atomic charge density approx. for the potential
     extrapolated charge   79.99057, renormalised to   80.00000

     total cpu time spent up to now is      307.9 secs

     per-process dynamical memory:    96.7 Mb

     Self-consistent Calculation

     iteration #  1     ecut=    80.00 Ry     beta=0.70
     Davidson diagonalization with overlap
     ethr =  1.00E-06,  avg # of iterations =  2.0

     Threshold (ethr) on eigenvalues was too large:
     Diagonalizing with lowered threshold

     Davidson diagonalization with overlap
     ethr =  4.83E-09,  avg # of iterations =  1.0

     total cpu time spent up to now is      345.0 secs

     total energy              =    -442.06987455 Ry
     Harris-Foulkes estimate   =    -442.08617697 Ry
[...]
 26  11   4.621914E+00   1.197381E+02   3.873689E+03   5.386072E+00   6.272646E+00
 26  12   1.034859E+01   2.324241E+02   5.538138E+03   4.810080E+00   5.897561E+00
 26  13   1.035061E+01   2.327375E+02   5.550721E+03   4.812572E+00   5.899183E+00
 26  14   4.683157E+00   1.214135E+02   3.905622E+03   5.379091E+00   6.268100E+00
 26  15   4.679863E+00   1.210027E+02   3.887609E+03   5.373894E+00   6.264716E+00
 26  16   4.754885E+00   1.226712E+02   3.911505E+03   5.360519E+00   6.256007E+00
 26  17   1.037187E+01   2.335026E+02   5.573470E+03   4.815020E+00   5.900777E+00
 26  18   4.672327E+00   1.209085E+02   3.895546E+03   5.378898E+00   6.267975E+00
 26  19   1.037794E+01   2.333561E+02   5.563808E+03   4.812229E+00   5.898960E+00
 26  20   4.676761E+00   1.210570E+02   3.897276E+03   5.378168E+00   6.267499E+00
 26  21   4.681829E+00   1.210981E+02   3.894689E+03   5.375806E+00   6.265961E+00
 26  22   4.665042E+00   1.206882E+02   3.890445E+03   5.379273E+00   6.268219E+00
 26  23   1.037687E+01   2.335612E+02   5.573220E+03   4.814386E+00   5.900364E+00
 26  24   4.756362E+00   1.226784E+02   3.910530E+03   5.359766E+00   6.255516E+00
 26  25   4.752832E+00   1.224856E+02   3.903648E+03   5.358432E+00   6.254647E+00
 26  26   1.037979E+01   2.334504E+02   5.565409E+03   4.812357E+00   5.899043E+00
 27   1   2.491954E+00   7.296200E+01   2.868111E+03   5.835108E+00   6.565058E+00
 27   2   2.487675E+00   7.278071E+01   2.861241E+03   5.834178E+00   6.564453E+00
 27   3   4.691350E+00   1.212301E+02   3.889931E+03   5.371368E+00   6.263071E+00
 27   4   4.708460E+00   1.216988E+02   3.902802E+03   5.370878E+00   6.262752E+00
 27   5   2.535200E+00   7.387904E+01   2.877589E+03   5.814540E+00   6.551665E+00
 27   6   2.506788E+00   7.316663E+01   2.866038E+03   5.825375E+00   6.558720E+00
 27   7   4.711438E+00   1.218507E+02   3.910044E+03   5.372518E+00   6.263820E+00
 27   8   2.502958E+00   7.319797E+01   2.871885E+03   5.830548E+00   6.562089E+00
 27   9   2.504531E+00   7.331134E+01   2.878186E+03   5.832807E+00   6.563560E+00
 27  10   2.489594E+00   7.292266E+01   2.865947E+03   5.835344E+00   6.565212E+00
 27  11   2.479505E+00   7.257726E+01   2.858232E+03   5.837533E+00   6.566638E+00
 27  12   4.694928E+00   1.212407E+02   3.888061E+03   5.369705E+00   6.261988E+00
 27  13   4.696958E+00   1.214147E+02   3.895724E+03   5.371745E+00   6.263317E+00
 27  14   2.507239E+00   7.343660E+01   2.880117E+03   5.832091E+00   6.563094E+00
 27  15   2.502618E+00   7.312724E+01   2.865553E+03   5.827499E+00   6.560104E+00
 27  16   2.532992E+00   7.387022E+01   2.878953E+03   5.816485E+00   6.552931E+00
 27  17   4.707731E+00   1.218235E+02   3.910627E+03   5.373767E+00   6.264633E+00
 27  18   2.503261E+00   7.319996E+01   2.874234E+03   5.831626E+00   6.562791E+00
 27  19   4.708204E+00   1.217072E+02   3.904350E+03   5.371494E+00   6.263153E+00
 27  20   2.503008E+00   7.321063E+01   2.873004E+03   5.831091E+00   6.562443E+00
 27  21   2.503741E+00   7.318390E+01   2.869901E+03   5.829085E+00   6.561136E+00
 27  22   2.498536E+00   7.304477E+01   2.869223E+03   5.831880E+00   6.562957E+00
 27  23   4.709437E+00   1.218432E+02   3.910560E+03   5.373258E+00   6.264302E+00
 27  24   2.533122E+00   7.385757E+01   2.877831E+03   5.815844E+00   6.552514E+00
 27  25   2.530195E+00   7.371808E+01   2.872047E+03   5.814643E+00   6.551732E+00
 27  26   4.708524E+00   1.217394E+02   3.905042E+03   5.371627E+00   6.263240E+00
 27  27   2.516895E+00   7.354210E+01   2.878477E+03   5.825688E+00   6.558925E+00
 28   1   2.473699E+00   7.259911E+01   2.864190E+03   5.843934E+00   6.570806E+00
 28   2   2.469442E+00   7.241860E+01   2.857324E+03   5.843006E+00   6.570202E+00
 28   3   4.645126E+00   1.203579E+02   3.881627E+03   5.381923E+00   6.269944E+00
 28   4   4.662054E+00   1.208228E+02   3.894474E+03   5.381436E+00   6.269628E+00
 28   5   2.516349E+00   7.350425E+01   2.873532E+03   5.823437E+00   6.557458E+00
 28   6   2.488309E+00   7.279990E+01   2.862072E+03   5.834231E+00   6.564488E+00
 28   7   4.665015E+00   1.209737E+02   3.901683E+03   5.383070E+00   6.270692E+00
 28   8   2.484565E+00   7.283241E+01   2.867935E+03   5.839389E+00   6.567846E+00
 28   9   2.486169E+00   7.294632E+01   2.874259E+03   5.841643E+00   6.569314E+00
 28  10   2.471336E+00   7.255931E+01   2.862007E+03   5.844172E+00   6.570961E+00
 28  11   2.461379E+00   7.221745E+01   2.854340E+03   5.846348E+00   6.572378E+00
 28  12   4.648671E+00   1.203687E+02   3.879790E+03   5.380265E+00   6.268865E+00
 28  13   4.650697E+00   1.205415E+02   3.887420E+03   5.382299E+00   6.270189E+00
 28  14   2.488826E+00   7.306994E+01   2.876163E+03   5.840932E+00   6.568851E+00
 28  15   2.484192E+00   7.276115E+01   2.861598E+03   5.836351E+00   6.565868E+00
 28  16   2.514182E+00   7.349609E+01   2.874906E+03   5.825376E+00   6.558721E+00
 28  17   4.661379E+00   1.209474E+02   3.902274E+03   5.384314E+00   6.271502E+00
 28  18   2.484907E+00   7.283564E+01   2.870316E+03   5.840463E+00   6.568545E+00
 28  19   4.661815E+00   1.208315E+02   3.896019E+03   5.382049E+00   6.270027E+00
 28  20   2.484612E+00   7.284495E+01   2.869045E+03   5.839931E+00   6.568199E+00
 28  21   2.485308E+00   7.281751E+01   2.865926E+03   5.837931E+00   6.566897E+00
 28  22   2.480203E+00   7.268087E+01   2.865291E+03   5.840715E+00   6.568710E+00
 28  23   4.663060E+00   1.209668E+02   3.902209E+03   5.383807E+00   6.271172E+00
 28  24   2.514300E+00   7.348323E+01   2.873779E+03   5.824737E+00   6.558305E+00
 28  25   2.511378E+00   7.334407E+01   2.867992E+03   5.823538E+00   6.557524E+00
 28  26   4.662125E+00   1.208632E+02   3.896704E+03   5.382182E+00   6.270113E+00
 28  27   2.498346E+00   7.317344E+01   2.874505E+03   5.834548E+00   6.564694E+00
 28  28   2.480037E+00   7.280924E+01   2.870577E+03   5.843378E+00   6.570444E+00
 29   1   4.633797E+00   1.200321E+02   3.874767E+03   5.382888E+00   6.270573E+00
 29   2   4.626832E+00   1.197475E+02   3.865981E+03   5.381906E+00   6.269933E+00
 29   3   1.030620E+01   2.315368E+02   5.524945E+03   4.812163E+00   5.898916E+00
 29   4   1.034577E+01   2.324840E+02   5.542901E+03   4.811443E+00   5.898448E+00
 29   5   4.745887E+00   1.222820E+02   3.897180E+03   5.358179E+00   6.254483E+00
 29   6   4.674401E+00   1.206556E+02   3.875716E+03   5.371421E+00   6.263105E+00
 29   7   1.035056E+01   2.327563E+02   5.554917E+03   4.813495E+00   5.899784E+00
 29   8   4.660794E+00   1.205709E+02   3.881797E+03   5.377447E+00   6.267030E+00
 29   9   4.658857E+00   1.206461E+02   3.887759E+03   5.380063E+00   6.268733E+00
 29  10   4.631673E+00   1.200325E+02   3.873669E+03   5.383087E+00   6.270702E+00
 29  11   4.606365E+00   1.192839E+02   3.860331E+03   5.385997E+00   6.272597E+00
 29  12   1.031367E+01   2.315249E+02   5.519461E+03   4.810094E+00   5.897570E+00
 29  13   1.031569E+01   2.318372E+02   5.531995E+03   4.812585E+00   5.899191E+00
 29  14   4.667402E+00   1.209530E+02   3.892150E+03   5.379014E+00   6.268050E+00
 29  15   4.664118E+00   1.205436E+02   3.874204E+03   5.373819E+00   6.264667E+00
 29  16   4.738887E+00   1.222056E+02   3.898019E+03   5.360445E+00   6.255958E+00
 29  17   1.033688E+01   2.325995E+02   5.554661E+03   4.815031E+00   5.900784E+00
 29  18   4.656608E+00   1.204498E+02   3.882113E+03   5.378823E+00   6.267926E+00
 29  19   1.034293E+01   2.324534E+02   5.545038E+03   4.812241E+00   5.898968E+00
 29  20   4.661027E+00   1.205978E+02   3.883836E+03   5.378092E+00   6.267450E+00
 29  21   4.666078E+00   1.206387E+02   3.881259E+03   5.375731E+00   6.265912E+00
 29  22   4.649348E+00   1.202303E+02   3.877031E+03   5.379198E+00   6.268170E+00
 29  23   1.034185E+01   2.326578E+02   5.554413E+03   4.814397E+00   5.900372E+00
 29  24   4.740359E+00   1.222128E+02   3.897047E+03   5.359692E+00   6.255468E+00
 29  25   4.736841E+00   1.220207E+02   3.890191E+03   5.358358E+00   6.254599E+00
 29  26   1.034477E+01   2.325473E+02   5.546632E+03   4.812369E+00   5.899051E+00
 29  27   4.692683E+00   1.212775E+02   3.891576E+03   5.371551E+00   6.263191E+00
 29  28   4.646441E+00   1.204048E+02   3.883263E+03   5.382105E+00   6.270063E+00
 29  29   1.030986E+01   2.316477E+02   5.527921E+03   4.812382E+00   5.899059E+00
 30   1   2.456952E+00   7.205797E+01   2.847673E+03   5.845582E+00   6.571879E+00
 30   2   2.452724E+00   7.187875E+01   2.840850E+03   5.844656E+00   6.571276E+00
 30   3   4.613243E+00   1.194386E+02   3.860977E+03   5.384167E+00   6.271406E+00
 30   4   4.630055E+00   1.198999E+02   3.873756E+03   5.383680E+00   6.271089E+00
 30   5   2.499303E+00   7.295583E+01   2.857002E+03   5.825104E+00   6.558544E+00
 30   6   2.471460E+00   7.225698E+01   2.845590E+03   5.835891E+00   6.565568E+00
 30   7   4.632996E+00   1.200497E+02   3.880917E+03   5.385311E+00   6.272151E+00
 30   8   2.467742E+00   7.228940E+01   2.851405E+03   5.841041E+00   6.568922E+00
 30   9   2.469337E+00   7.240256E+01   2.857688E+03   5.843292E+00   6.570388E+00
 30  10   2.454605E+00   7.201846E+01   2.845499E+03   5.845818E+00   6.572033E+00
 30  11   2.444717E+00   7.167918E+01   2.837877E+03   5.847995E+00   6.573451E+00
 30  12   4.616764E+00   1.194492E+02   3.859161E+03   5.382513E+00   6.270329E+00
 30  13   4.618776E+00   1.196208E+02   3.866736E+03   5.384542E+00   6.271650E+00
 30  14   2.471975E+00   7.252525E+01   2.859580E+03   5.842580E+00   6.569924E+00
 30  15   2.467371E+00   7.221860E+01   2.845112E+03   5.838007E+00   6.566946E+00
 30  16   2.497152E+00   7.294779E+01   2.858364E+03   5.827041E+00   6.559805E+00
 30  17   4.629386E+00   1.200237E+02   3.881498E+03   5.386552E+00   6.272959E+00
 30  18   2.468084E+00   7.229266E+01   2.853772E+03   5.842115E+00   6.569621E+00
 30  19   4.629818E+00   1.199086E+02   3.875290E+03   5.384292E+00   6.271487E+00
 30  20   2.467790E+00   7.230186E+01   2.852508E+03   5.841582E+00   6.569275E+00
 30  21   2.468479E+00   7.227455E+01   2.849412E+03   5.839585E+00   6.567974E+00
 30  22   2.463412E+00   7.213901E+01   2.848777E+03   5.842367E+00   6.569786E+00
 30  23   4.631055E+00   1.200430E+02   3.881436E+03   5.386047E+00   6.272630E+00
 30  24   2.497269E+00   7.293500E+01   2.857244E+03   5.826403E+00   6.559390E+00
 30  25   2.494366E+00   7.279682E+01   2.851494E+03   5.825207E+00   6.558611E+00
 30  26   4.630125E+00   1.199401E+02   3.875970E+03   5.384425E+00   6.271573E+00
 30  27   2.481429E+00   7.262779E+01   2.857947E+03   5.836204E+00   6.565772E+00
 30  28   2.463248E+00   7.226654E+01   2.854022E+03   5.845025E+00   6.571516E+00
 30  29   4.614549E+00   1.194851E+02   3.862603E+03   5.384349E+00   6.271524E+00
 30  30   2.446572E+00   7.172785E+01   2.837562E+03   5.846673E+00   6.572589E+00
 
+ van der Waals energies, forces and stresses (Ry,bohr)
  Evdw(total,Ry)   =  -1.383067562427E-01
  Evdw(C6,Ry)      =  -7.167780307945E-02
  Evdw(C8,Ry)      =  -3.835512894156E-02
  Evdw(C10,Ry)     =  -2.827382422169E-02
  Fvdw (001,Ry/bohr) =  -5.596335489738E-06  -6.586808492589E-05  -2.080421463906E-06
  Fvdw (002,Ry/bohr) =   1.025412721208E-06  -9.045693583435E-05   1.091919553463E-05
  Fvdw (003,Ry/bohr) =  -8.995213383153E-06  -3.972300581633E-05  -2.179877942521E-05
  Fvdw (004,Ry/bohr) =  -5.807898007897E-05   3.681921866744E-05  -3.916313059244E-05
  Fvdw (005,Ry/bohr) =   8.074305039743E-05  -8.995198765209E-06  -2.854783291677E-05
  Fvdw (006,Ry/bohr) =  -8.061822006598E-05   9.731152463125E-06   4.762312089533E-05
  Fvdw (007,Ry/bohr) =  -1.363655747362E-06   2.683825339120E-05  -8.274666133973E-06
  Fvdw (008,Ry/bohr) =   6.652019883375E-05   1.255876085336E-05   4.553394045941E-05
  Fvdw (009,Ry/bohr) =   7.402899094399E-05  -1.164563125374E-05  -4.746863220294E-05
  Fvdw (010,Ry/bohr) =  -2.328586480486E-05   6.134371529940E-05   3.848287470935E-05
  Fvdw (011,Ry/bohr) =  -1.098130374876E-05   8.798395254114E-05  -1.697367012955E-05
  Fvdw (012,Ry/bohr) =  -4.273549090119E-05   3.060868726693E-05  -6.877465553241E-06
  Fvdw (013,Ry/bohr) =  -2.480904144232E-06   8.576944381117E-06  -1.073859823321E-05
  Fvdw (014,Ry/bohr) =  -1.350706028315E-05  -4.363657623397E-05   5.580192167179E-05
  Fvdw (015,Ry/bohr) =  -1.258169978727E-05   4.287603511736E-05   5.603037345306E-05
  Fvdw (016,Ry/bohr) =   2.256417508348E-06   9.726591228428E-05  -3.290546720090E-05
  Fvdw (017,Ry/bohr) =  -4.869181399705E-05  -8.357842369230E-05   9.022037696637E-07
  Fvdw (018,Ry/bohr) =   8.661274936396E-06  -1.012343011413E-04  -2.111535985103E-05
  Fvdw (019,Ry/bohr) =  -1.051386569326E-05  -2.510359838957E-05  -3.820012426804E-05
  Fvdw (020,Ry/bohr) =  -6.759817494608E-06   2.706943556967E-05  -7.660848939307E-05
  Fvdw (021,Ry/bohr) =  -4.327049551191E-05  -9.786801230742E-06   5.922747033659E-05
  Fvdw (022,Ry/bohr) =   5.590873365420E-06   1.119161214837E-04   8.427017605028E-06
  Fvdw (023,Ry/bohr) =  -4.197288093783E-06   9.374334633938E-05  -1.501069410014E-05
  Fvdw (024,Ry/bohr) =   2.060564327137E-07  -9.405548923692E-05   3.603107093062E-05
  Fvdw (025,Ry/bohr) =   9.106183703322E-05  -5.909320688705E-06   3.280587307036E-05
  Fvdw (026,Ry/bohr) =  -6.774315509945E-05  -4.395243586419E-05  -3.738466852455E-06
  Fvdw (027,Ry/bohr) =  -5.823239087917E-05   3.137929118438E-06  -5.580059943034E-05
  Fvdw (028,Ry/bohr) =   7.507907462608E-05   1.343602333385E-05   2.354216807224E-05
  Fvdw (029,Ry/bohr) =   1.062759734733E-05  -2.442287862051E-05   7.676864017892E-07
  Fvdw (030,Ry/bohr) =   8.383277105799E-05  -1.553680641670E-05   9.207480837347E-06
  sigma_vdw (Ry/bohr**3) =  -1.110446029477E-04  -6.196233084963E-09  -7.123995047481E-09  
                            -6.196233084963E-09  -1.108225694024E-04  -8.086286959217E-08  
                            -7.123995047481E-09  -8.086286959217E-08  -1.116417830164E-04  
  sigma_vdw (GPa) =  -1.633522231509E+00  -9.114972026754E-05  -1.047975676288E-04  
                     -9.114972026754E-05  -1.630256005842E+00  -1.189533679945E-03  
                     -1.047975676288E-04  -1.189533679945E-03  -1.642307052135E+00  
 

!    total energy              =    -442.20818526 Ry
     Harris-Foulkes estimate   =    -442.20818519 Ry
     estimated scf accuracy    <          6.5E-09 Ry

     total all-electron energy =     -1530.652624 Ry

     The total energy is the sum of the following terms:

     one-electron contribution =    -183.60163626 Ry
     hartree contribution      =     124.84038853 Ry
     xc contribution           =     -89.41986469 Ry
     ewald contribution        =    -197.97772360 Ry
     Dispersion XDM Correction =      -0.13830676 Ry
     one-center paw contrib.   =     -95.91104248 Ry

     convergence has been achieved in  11 iterations

     Forces acting on atoms (Ry/au):

     atom    1 type  1   force =     0.00004475   -0.00000282    0.00006507
     atom    2 type  1   force =     0.00004809    0.00004514   -0.00015729
     atom    3 type  2   force =    -0.00004074   -0.00007529    0.00010222
     atom    4 type  2   force =    -0.00030273   -0.00016632    0.00018602
     atom    5 type  1   force =     0.00017549    0.00006305    0.00025037
     atom    6 type  1   force =     0.00046814    0.00001166   -0.00030501
     atom    7 type  2   force =     0.00007103   -0.00026186    0.00008978
     atom    8 type  1   force =     0.00029182    0.00008192   -0.00015805
     atom    9 type  1   force =    -0.00005438    0.00012943    0.00019393
     atom   10 type  1   force =    -0.00011643   -0.00018493   -0.00023440
     atom   11 type  1   force =    -0.00008730    0.00012201   -0.00003164
     atom   12 type  2   force =    -0.00005097    0.00004672    0.00013216
     atom   13 type  2   force =    -0.00006243   -0.00007885    0.00018928
     atom   14 type  1   force =    -0.00002718    0.00012735   -0.00018405
     atom   15 type  1   force =     0.00005637   -0.00019637    0.00006619
     atom   16 type  1   force =     0.00006756    0.00005772   -0.00001385
     atom   17 type  2   force =    -0.00001008   -0.00039438   -0.00033515
     atom   18 type  1   force =    -0.00014401    0.00003117    0.00000300
     atom   19 type  2   force =    -0.00024185   -0.00004283   -0.00025045
     atom   20 type  1   force =     0.00002556    0.00007389    0.00018077
     atom   21 type  1   force =     0.00005042    0.00009952   -0.00006536
     atom   22 type  1   force =    -0.00001250   -0.00020772    0.00004234
     atom   23 type  2   force =     0.00016098    0.00043505   -0.00009195
     atom   24 type  1   force =     0.00020608    0.00014253    0.00038729
     atom   25 type  1   force =    -0.00000444    0.00003730    0.00004601
     atom   26 type  2   force =    -0.00051141    0.00002336   -0.00033562
     atom   27 type  1   force =     0.00012453    0.00004034    0.00014222
     atom   28 type  1   force =    -0.00031162    0.00003993    0.00001079
     atom   29 type  2   force =     0.00016781    0.00003620    0.00007043
     atom   30 type  1   force =     0.00001944   -0.00003290    0.00000495

     Total force =     0.001635     Total SCF correction =     0.000174
     SCF correction compared to forces is large: reduce conv_thr to get better values


     entering subroutine stress ...

          total   stress  (Ry/bohr**3)                   (kbar)     P=   -0.16
  -0.00000157   0.00000018  -0.00000092         -0.23      0.03     -0.14
   0.00000018  -0.00000049   0.00000043          0.03     -0.07      0.06
  -0.00000092   0.00000043  -0.00000129         -0.14      0.06     -0.19


     Writing output data file crystal.save
 
     init_run     :     17.97s CPU     18.92s WALL (       2 calls)
     electrons    :    601.14s CPU    644.05s WALL (       3 calls)
     update_pot   :      4.11s CPU      4.14s WALL (       1 calls)
     forces       :     12.87s CPU     13.01s WALL (       3 calls)
     stress       :     24.08s CPU     24.34s WALL (       3 calls)

     Called by init_run:
     wfcinit      :     11.35s CPU     12.23s WALL (       2 calls)
     potinit      :      2.51s CPU      2.53s WALL (       2 calls)

     Called by electrons:
     c_bands      :    339.59s CPU    365.36s WALL (      29 calls)
     sum_band     :    201.73s CPU    218.29s WALL (      29 calls)
     v_of_rho     :      3.30s CPU      3.43s WALL (      31 calls)
     newd         :      7.38s CPU      7.48s WALL (      31 calls)
     mix_rho      :      0.82s CPU      0.87s WALL (      29 calls)

     Called by c_bands:
     init_us_2    :      3.50s CPU      3.54s WALL (    2144 calls)
     cegterg      :    330.30s CPU    355.92s WALL (     928 calls)

     Called by *egterg:
     h_psi        :    277.99s CPU    302.31s WALL (    3034 calls)
     s_psi        :     11.78s CPU     11.90s WALL (    3034 calls)
     g_psi        :      1.33s CPU      1.42s WALL (    2042 calls)
     cdiaghg      :     13.16s CPU     13.40s WALL (    2906 calls)

     Called by h_psi:
     add_vuspsi   :     11.33s CPU     11.51s WALL (    3034 calls)

     General routines
     calbec       :     19.31s CPU     20.68s WALL (    4186 calls)
     fft          :      3.77s CPU      4.08s WALL (     721 calls)
     ffts         :      0.13s CPU      0.15s WALL (      89 calls)
     fftw         :    377.17s CPU    412.95s WALL (  366494 calls)
     interpolate  :      0.62s CPU      0.69s WALL (      89 calls)
     davcio       :      0.04s CPU      0.58s WALL (      64 calls)
 
     Parallel routines
     fft_scatter  :    101.96s CPU    116.48s WALL (  367304 calls)

     PAW routines
     PAW_pot      :      1.80s CPU      1.81s WALL (      32 calls)
 
     PWSCF        : 11m 2.50s CPU    11m47.49s WALL

 
   This run was terminated on:  20:47:31   5Feb2016            

=------------------------------------------------------------------------------=
   JOB DONE.
=------------------------------------------------------------------------------=
