70
sphere_16c_10.0.log	Energy: -27165532.7481382
Fe         0.00000        0.00000        1.81774
Fe         0.00000       -3.42757        2.42366
Fe         2.96836        1.71378        2.42366
Fe        -2.96836        1.71378        2.42366
Fe         0.00000       -1.71378        4.84732
Fe        -1.48418        0.85689        4.84732
Fe         1.48418        0.85689        4.84732
O          0.00000        0.00000        3.70384
O         -2.96836        0.06444        3.65827
O          2.96836        0.06444        3.65827
O          1.53999        2.53846        3.65827
O         -1.42838       -2.60290        3.65827
O          1.42838       -2.60290        3.65827
O         -1.53999        2.53846        3.65827
Fe         0.00000        0.00000       -1.81774
Fe         0.00000        1.71378       -4.84732
Fe         1.48418       -0.85689       -4.84732
Fe        -1.48418       -0.85689       -4.84732
O          0.00000        0.00000       -3.70384
O          1.53999       -2.53846       -3.65827
O         -1.42838        2.60290       -3.65827
O          1.42838        2.60290       -3.65827
O         -1.53999       -2.53846       -3.65827
O         -2.96836       -0.06444       -3.65827
O          2.96836       -0.06444       -3.65827
Fe        -2.96836        1.71378       -3.02957
Fe        -4.45254        2.57068        0.00000
O         -2.96836        1.71378       -1.14348
O         -4.39674        0.88911        1.18905
O         -1.53999        0.88911        1.18905
O         -2.96836        3.36313        1.18905
Fe         2.96836        1.71378       -3.02957
Fe         4.45254        2.57068        0.00000
O          2.96836        1.71378       -1.14348
O          1.53999        0.88911        1.18905
O          4.39674        0.88911        1.18905
O          2.96836        3.36313        1.18905
Fe         0.00000        3.42757        3.02957
Fe         0.00000        3.42757       -2.42366
Fe         0.00000        5.14136        0.00000
Fe         1.48418        2.57068        0.00000
Fe        -1.48418        2.57068        0.00000
O          0.00000        3.42757        1.14348
O          0.00000        1.77822       -1.18905
O         -1.42838        4.25225       -1.18905
O          1.42838        4.25225       -1.18905
Fe         0.00000       -3.42757       -3.02957
Fe         0.00000       -5.14136        0.00000
O          0.00000       -3.42757       -1.14348
O         -1.42838       -4.25225        1.18905
O          1.42838       -4.25225        1.18905
O          0.00000       -1.77822        1.18905
Fe        -2.96836       -1.71378        3.02957
Fe        -2.96836       -1.71378       -2.42366
Fe        -2.96836        0.00000        0.00000
Fe        -1.48418       -2.57068        0.00000
Fe        -4.45254       -2.57068        0.00000
O         -2.96836       -1.71378        1.14348
O         -2.96836       -3.36313       -1.18905
O         -4.39674       -0.88911       -1.18905
O         -1.53999       -0.88911       -1.18905
Fe         2.96836       -1.71378        3.02957
Fe         2.96836       -1.71378       -2.42366
Fe         2.96836        0.00000        0.00000
Fe         4.45254       -2.57068        0.00000
Fe         1.48418       -2.57068        0.00000
O          2.96836       -1.71378        1.14348
O          2.96836       -3.36313       -1.18905
O          1.53999       -0.88911       -1.18905
O          4.39674       -0.88911       -1.18905
