
     Program PWSCF v.4.3.2      starts on 20Apr2012 at 18:45: 9 

     This program is part of the open-source Quantum ESPRESSO suite
     for quantum simulation of materials; please cite
         "P. Giannozzi et al., J. Phys.:Condens. Matter 21 395502 (2009);
          URL http://www.quantum-espresso.org", 
     in publications or presentations arising from this work. More details at
     http://www.quantum-espresso.org/wiki/index.php/Citing_Quantum-ESPRESSO

     Parallel version (MPI), running on     4 processors
     R & G space division:  proc/pool =    4

     Current dimensions of program PWSCF are:
     Max number of different atomic species (ntypx) = 10
     Max number of k-points (npk) =  40000
     Max angular momentum in pseudopotentials (lmaxx) =  3
     Waiting for input...
     Reading input from stdin
               file o.UPF: wavefunction(s)  Xn Xn renormalized
               file n.UPF: wavefunction(s)  Xn Xn renormalized

     Subspace diagonalization in iterative solution of the eigenvalue problem:
     a serial algorithm will be used

     warning: symmetry operation #  2 not allowed.   fractional translation:
       0.5000000  0.0000000 -0.5000000  in crystal coordinates
 
     Parallelization info
     --------------------
     sticks:   dense  smooth     PW     G-vecs:    dense   smooth      PW
     Min        3281    1639    424               336555   119013   15657
     Max        3282    1640    425               336558   119025   15658
     Sum       13125    6557   1697              1346225   476077   62631
 

     Title: 
     black_c                                                                    


     bravais-lattice index     =            0
     lattice parameter (alat)  =       1.0000  a.u.
     unit-cell volume          =    4923.9757 (a.u.)^3
     number of atoms/cell      =           88
     number of atomic types    =            4
     number of electrons       =       272.00
     number of Kohn-Sham states=          136
     kinetic-energy cutoff     =      80.0000  Ry
     charge density cutoff     =     640.0000  Ry
     convergence threshold     =      1.0E-08
     mixing beta               =       0.7000
     number of iterations used =            8  plain     mixing
     Exchange-correlation      = B86B ( 1 418 4 0)
     EXX-fraction              =        0.00
     nstep                     =           50


     celldm(1)=   1.000000  celldm(2)=   0.000000  celldm(3)=   0.000000
     celldm(4)=   0.000000  celldm(5)=   0.000000  celldm(6)=   0.000000

     crystal axes: (cart. coord. in units of alat)
               a(1) = (  16.008545   0.000218   0.000000 )  
               a(2) = (   0.000228  16.093463   0.000000 )  
               a(3) = (   0.000000   0.000000  19.112369 )  

     reciprocal axes: (cart. coord. in units 2 pi/alat)
               b(1) = (  0.062467 -0.000001  0.000000 )  
               b(2) = ( -0.000001  0.062137  0.000000 )  
               b(3) = (  0.000000  0.000000  0.052322 )  


     PseudoPot. # 1 for C  read from file:
     ./c.UPF
     MD5 check sum: 7d4f5342ccdded2f34e910ef3a0bffe3
     Pseudo is Projector augmented-wave + core cor, Zval =  4.0
     Generated using ATOMPAW code
     Shape of augmentation charge: SINC**2
     Using radial grid of 2342 points,  2 beta functions with: 
                l(1) =   0
                l(2) =   1
     Q(r) pseudized with 0 coefficients 


     PseudoPot. # 2 for H  read from file:
     ./h.UPF
     MD5 check sum: a1a08a69276e7e7269f03dd4353a4644
     Pseudo is Projector augmented-wave + core cor, Zval =  1.0
     Generated using ATOMPAW code
     Shape of augmentation charge: SINC**2
     Using radial grid of 2342 points,  1 beta functions with: 
                l(1) =   0
     Q(r) pseudized with 0 coefficients 


     PseudoPot. # 3 for O  read from file:
     ./o.UPF
     MD5 check sum: 2d688a4fb970915d860abe01db6d1753
     Pseudo is Projector augmented-wave + core cor, Zval =  6.0
     Generated using ATOMPAW code
     Shape of augmentation charge: SINC**2
     Using radial grid of 2342 points,  4 beta functions with: 
                l(1) =   0
                l(2) =   0
                l(3) =   1
                l(4) =   1
     Q(r) pseudized with 0 coefficients 


     PseudoPot. # 4 for N  read from file:
     ./n.UPF
     MD5 check sum: 5aec23488194fe1e9fcb5a39c003f111
     Pseudo is Projector augmented-wave + core cor, Zval =  5.0
     Generated using ATOMPAW code
     Shape of augmentation charge: SINC**2
     Using radial grid of 2342 points,  4 beta functions with: 
                l(1) =   0
                l(2) =   0
                l(3) =   1
                l(4) =   1
     Q(r) pseudized with 0 coefficients 


     atomic species   valence    mass     pseudopotential
        c              4.00    12.01070     C ( 1.00)
        h              1.00     1.00794     H ( 1.00)
        o              6.00    15.99940     O ( 1.00)
        n              5.00    14.00670     N ( 1.00)

     No symmetry found

   Cartesian axes

     site n.     atom                  positions (alat units)
         1           o   tau(   1) = (   5.3571354   6.1104051   4.9928022  )
         2           o   tau(   2) = (  13.3617591   1.9362317  14.1196004  )
         3           o   tau(   3) = (  10.6512872  14.1575580   4.5634154  )
         4           o   tau(   4) = (   2.6473656   9.9831661  14.5489871  )
         5           o   tau(   5) = (   5.1327863   0.4523423   7.5823781  )
         6           o   tau(   6) = (  13.1373923   7.5942549  11.5298753  )
         7           o   tau(   7) = (  10.8756536   8.4995345   1.9736906  )
         8           o   tau(   8) = (   2.8717143  15.6412293  17.1385628  )
         9           o   tau(   9) = (   3.2980841  12.3997385   4.3659572  )
        10           o   tau(  10) = (  11.3026505  11.7402965  14.7465826  )
        11           o   tau(  11) = (  12.7103955   4.3534929   5.1903979  )
        12           o   tau(  12) = (   4.7064166   3.6938330  13.9221419  )
        13           o   tau(  13) = (   3.0333167   3.0180339   1.6489791  )
        14           o   tau(  14) = (  11.0378664   5.0287426  17.4634427  )
        15           o   tau(  15) = (  12.9751796  11.0650468   7.9072579  )
        16           o   tau(  16) = (   4.9711839  13.0755377  11.2051639  )
        17           n   tau(  17) = (   4.0526380   8.6904227   8.1509339  )
        18           n   tau(  18) = (  12.0571879  15.4494960  10.9616517  )
        19           n   tau(  19) = (  11.9558581   0.6442934   1.4054670  )
        20           n   tau(  20) = (   3.9518627   7.4031489  17.7071186  )
        21           n   tau(  21) = (   5.9649971   4.7012404   9.0231405  )
        22           n   tau(  22) = (  13.9696005   3.3455393  10.0891392  )
        23           n   tau(  23) = (  10.0434455  12.7482502   0.5329544  )
        24           n   tau(  24) = (   2.0395036  11.3923311  18.5793253  )
        25           c   tau(  25) = (   5.1345204   6.4950829   7.5371299  )
        26           c   tau(  26) = (  13.1390396   1.5515681  11.5755043  )
        27           c   tau(  27) = (  10.8740128  14.5422231   2.0193197  )
        28           c   tau(  28) = (   2.8699795   9.5984874  17.0933145  )
        29           c   tau(  29) = (   6.7932095   2.6461726   7.4120424  )
        30           c   tau(  30) = (  14.7976494   5.4003637  11.7003520  )
        31           c   tau(  31) = (   9.2154012  10.6934247   2.1441676  )
        32           c   tau(  32) = (   1.2112837  13.4473999  16.9682286  )
        33           h   tau(  33) = (   8.6760674   1.9624155   7.9165049  )
        34           h   tau(  34) = (   0.6721958   6.0840250  11.1957395  )
        35           h   tau(  35) = (   7.3323050  10.0095467   1.6395548  )
        36           h   tau(  36) = (  15.3369785  14.1313738  17.4726895  )
        37           c   tau(  37) = (   3.1446404   0.7578895   5.7280598  )
        38           c   tau(  38) = (  11.1492244   7.2886643  13.3842539  )
        39           c   tau(  39) = (  12.8638191   8.8051225   3.8280702  )
        40           c   tau(  40) = (   4.8598621  15.3356840  15.2842450  )
        41           h   tau(  41) = (   1.7552919   2.1612051   6.4023091  )
        42           h   tau(  42) = (   9.7597773   5.8854126  12.7099839  )
        43           h   tau(  43) = (  14.2532687  10.2083768   3.1537992  )
        44           h   tau(  44) = (   6.2492087  13.9323665  15.9584938  )
        45           c   tau(  45) = (   1.7345329  14.3905244   5.2978525  )
        46           c   tau(  46) = (   9.7389904   9.7495765  13.8145199  )
        47           c   tau(  47) = (  14.2740520   6.3442135   4.2583345  )
        48           c   tau(  48) = (   6.2699695   1.7030467  14.8540365  )
        49           h   tau(  49) = (   0.8465103  13.7752535   7.0728155  )
        50           h   tau(  50) = (   8.8510337  10.3649821  12.0396355  )
        51           h   tau(  51) = (  15.1620123   5.7288073   2.4834507  )
        52           h   tau(  52) = (   7.1579903   2.3183180  16.6290003  )
        53           h   tau(  53) = (   0.1852212  14.7977877   3.9706565  )
        54           h   tau(  54) = (   8.1896507   9.3422990  15.1417209  )
        55           h   tau(  55) = (  15.8233953   6.7514904   5.5855361  )
        56           h   tau(  56) = (   7.8192795   1.2957839  13.5268413  )
        57           c   tau(  57) = (   6.4857768   3.6287371   4.6788527  )
        58           c   tau(  58) = (  14.4904303   4.4179019  14.4335387  )
        59           c   tau(  59) = (   9.5226092  11.6758882   4.8773525  )
        60           c   tau(  60) = (   1.5187266  12.4648338  14.2350365  )
        61           h   tau(  61) = (   8.2541414   3.8796080   3.6453963  )
        62           h   tau(  62) = (   0.2502308   4.1669295  15.4669885  )
        63           h   tau(  63) = (   7.7542699  11.9266421   5.9108037  )
        64           h   tau(  64) = (  15.7589049  12.2141814  13.2015812  )
        65           c   tau(  65) = (   4.5925893   1.8131057   3.4515562  )
        66           c   tau(  66) = (  12.5971724   6.2334924  15.6606969  )
        67           c   tau(  67) = (  11.4158694   9.8602967   6.1045133  )
        68           c   tau(  68) = (   3.4119165  14.2804661  13.0077423  )
        69           h   tau(  69) = (   5.6574446   0.2510958   2.5807753  )
        70           h   tau(  70) = (  13.6620488   7.7955943  16.5314209  )
        71           h   tau(  71) = (  10.3509972   8.2981951   6.9752361  )
        72           h   tau(  72) = (   2.3470561  15.8424758  12.1369600  )
        73           h   tau(  73) = (   2.8101961   1.8055314   0.2361480  )
        74           h   tau(  74) = (  10.8145798   6.2413801  18.8760250  )
        75           h   tau(  75) = (  13.1984662   9.8524092   9.3198403  )
        76           h   tau(  76) = (   5.1943046  14.2880402   9.7923326  )
        77           h   tau(  77) = (   4.2499245   9.4330945   9.9151326  )
        78           h   tau(  78) = (  12.2544370  14.7071112   9.1972996  )
        79           h   tau(  79) = (  11.7586090   1.3866782  18.7534844  )
        80           h   tau(  80) = (   3.7545762   6.6604771   0.3589479  )
        81           h   tau(  81) = (   2.8142845  11.9857100   2.5613537  )
        82           h   tau(  82) = (  10.8185919  12.1545895  16.5510098  )
        83           h   tau(  83) = (  13.1944540   3.9391999   6.9948250  )
        84           h   tau(  84) = (   5.1902161   4.1078616  12.1175385  )
        85           h   tau(  85) = (   3.7193124   9.9689854   6.7091132  )
        86           h   tau(  86) = (  11.7240246  14.1711967  12.4032560  )
        87           h   tau(  87) = (  12.2890214   1.9225927   2.8470713  )
        88           h   tau(  88) = (   4.2851882   6.1245862  16.2652980  )

     number of k points=     4
                       cart. coord. in units 2pi/alat
        k(    1) = (   0.0156164   0.0155340   0.0130805), wk =   0.5000000
        k(    2) = (   0.0156169  -0.0155345   0.0130805), wk =   0.5000000
        k(    3) = (  -0.0156164  -0.0155340   0.0130805), wk =   0.5000000
        k(    4) = (  -0.0156169   0.0155345   0.0130805), wk =   0.5000000

     Dense  grid:  1346225 G-vectors     FFT dimensions: ( 135, 135, 160)

     Smooth grid:   476077 G-vectors     FFT dimensions: (  96,  96, 120)

     Largest allocated arrays     est. size (Mb)     dimensions
        Kohn-Sham Wavefunctions        30.87 Mb     (  14878,  136)
        NL pseudopotentials            74.46 Mb     (  14878,  328)
        Each V/rho on FFT grid         11.12 Mb     ( 729000)
        Each G-vector array             2.57 Mb     ( 336557)
        G-vector shells                 2.57 Mb     ( 336557)
     Largest temporary arrays     est. size (Mb)     dimensions
        Auxiliary wavefunctions       123.50 Mb     (  14878,  544)
        Each subspace H/S matrix        4.52 Mb     ( 544, 544)
        Each <psi_i|beta_j> matrix      0.68 Mb     (    328,  136)
        Arrays for rho mixing          88.99 Mb     ( 729000,   8)

     Initial potential from superposition of free atoms

     starting charge  271.99855, renormalised to  272.00000
     Starting wfc are  328 atomic wfcs
     Checking if some PAW data can be deallocated... 

     total cpu time spent up to now is      208.0 secs

     per-process dynamical memory:   339.6 Mb

     Self-consistent Calculation

     iteration #  1     ecut=    80.00 Ry     beta=0.70
     Davidson diagonalization with overlap
     ethr =  1.00E-02,  avg # of iterations =  2.0

     total cpu time spent up to now is      352.6 secs

     total energy              =   -1381.15028026 Ry
     Harris-Foulkes estimate   =   -1386.69993790 Ry
     estimated scf accuracy    <     241.56975464 Ry

     iteration #  2     ecut=    80.00 Ry     beta=0.70
     Davidson diagonalization with overlap
     ethr =  1.00E-02,  avg # of iterations =  2.0

     total cpu time spent up to now is      486.8 secs

     total energy              =   -1381.97305494 Ry
     Harris-Foulkes estimate   =   -1384.92602812 Ry
     estimated scf accuracy    <      43.27565318 Ry

     iteration #  3     ecut=    80.00 Ry     beta=0.70
     Davidson diagonalization with overlap
     ethr =  1.00E-02,  avg # of iterations =  2.0

     total cpu time spent up to now is      628.0 secs

     total energy              =   -1382.03392832 Ry
     Harris-Foulkes estimate   =   -1386.48280872 Ry
     estimated scf accuracy    <      16.02490575 Ry

     iteration #  4     ecut=    80.00 Ry     beta=0.70
     Davidson diagonalization with overlap
     ethr =  5.89E-03,  avg # of iterations =  2.0

     total cpu time spent up to now is      752.1 secs

     total energy              =   -1383.68024565 Ry
     Harris-Foulkes estimate   =   -1383.71795066 Ry
     estimated scf accuracy    <       0.15952194 Ry

     iteration #  5     ecut=    80.00 Ry     beta=0.70
     Davidson diagonalization with overlap
     ethr =  5.86E-05,  avg # of iterations =  3.0

     total cpu time spent up to now is      921.1 secs

     total energy              =   -1383.80232630 Ry
     Harris-Foulkes estimate   =   -1383.82442366 Ry
     estimated scf accuracy    <       0.16846508 Ry

     iteration #  6     ecut=    80.00 Ry     beta=0.70
     Davidson diagonalization with overlap
     ethr =  5.86E-05,  avg # of iterations =  1.0

     total cpu time spent up to now is     1036.2 secs

     total energy              =   -1383.80415635 Ry
     Harris-Foulkes estimate   =   -1383.80718284 Ry
     estimated scf accuracy    <       0.04674150 Ry

     iteration #  7     ecut=    80.00 Ry     beta=0.70
     Davidson diagonalization with overlap
     ethr =  1.72E-05,  avg # of iterations =  2.0

     total cpu time spent up to now is     1152.4 secs

     total energy              =   -1383.80322048 Ry
     Harris-Foulkes estimate   =   -1383.80577121 Ry
     estimated scf accuracy    <       0.01608061 Ry

     iteration #  8     ecut=    80.00 Ry     beta=0.70
     Davidson diagonalization with overlap
     ethr =  5.91E-06,  avg # of iterations =  3.0

     total cpu time spent up to now is     1286.0 secs

     total energy              =   -1383.80549909 Ry
     Harris-Foulkes estimate   =   -1383.80573124 Ry
     estimated scf accuracy    <       0.00093307 Ry

     iteration #  9     ecut=    80.00 Ry     beta=0.70
     Davidson diagonalization with overlap
     ethr =  3.43E-07,  avg # of iterations =  2.0

     total cpu time spent up to now is     1422.1 secs

     total energy              =   -1383.80559741 Ry
     Harris-Foulkes estimate   =   -1383.80562480 Ry
     estimated scf accuracy    <       0.00009799 Ry

     iteration # 10     ecut=    80.00 Ry     beta=0.70
     Davidson diagonalization with overlap
     ethr =  3.60E-08,  avg # of iterations =  3.0

     total cpu time spent up to now is     1573.1 secs

     total energy              =   -1383.80561232 Ry
     Harris-Foulkes estimate   =   -1383.80562753 Ry
     estimated scf accuracy    <       0.00006539 Ry

     iteration # 11     ecut=    80.00 Ry     beta=0.70
     Davidson diagonalization with overlap
     ethr =  2.40E-08,  avg # of iterations =  2.0

     total cpu time spent up to now is     1704.9 secs

     total energy              =   -1383.80561969 Ry
     Harris-Foulkes estimate   =   -1383.80562082 Ry
     estimated scf accuracy    <       0.00000577 Ry

     iteration # 12     ecut=    80.00 Ry     beta=0.70
     Davidson diagonalization with overlap
     ethr =  2.12E-09,  avg # of iterations =  3.0

     total cpu time spent up to now is     1833.3 secs

     total energy              =   -1383.80562001 Ry
     Harris-Foulkes estimate   =   -1383.80562036 Ry
     estimated scf accuracy    <       0.00000229 Ry

     iteration # 13     ecut=    80.00 Ry     beta=0.70
     Davidson diagonalization with overlap
     ethr =  8.42E-10,  avg # of iterations =  1.0

     total cpu time spent up to now is     1949.3 secs

     total energy              =   -1383.80561995 Ry
     Harris-Foulkes estimate   =   -1383.80562010 Ry
     estimated scf accuracy    <       0.00000080 Ry

     iteration # 14     ecut=    80.00 Ry     beta=0.70
     Davidson diagonalization with overlap
     ethr =  2.94E-10,  avg # of iterations =  2.0

     total cpu time spent up to now is     2075.7 secs

     total energy              =   -1383.80562003 Ry
     Harris-Foulkes estimate   =   -1383.80562003 Ry
     estimated scf accuracy    <       0.00000002 Ry

     iteration # 15     ecut=    80.00 Ry     beta=0.70
     Davidson diagonalization with overlap
     ethr =  7.48E-12,  avg # of iterations =  3.0

     total cpu time spent up to now is     2218.6 secs

     End of self-consistent calculation

          k = 0.0156 0.0155 0.0131 ( 59482 PWs)   bands (ev):

   -20.7147 -20.7071 -20.6994 -20.6954 -19.2837 -19.2780 -19.2130 -19.2075
   -18.4297 -18.4287 -18.3199 -18.3193 -17.9882 -17.9859 -17.9729 -17.9720
   -16.1484 -16.1432 -16.1322 -16.1295 -15.0964 -15.0915 -15.0740 -15.0719
   -12.2476 -12.2293 -12.0982 -12.0823 -11.7141 -11.6984 -11.6584 -11.6393
    -9.5574  -9.5432  -9.4935  -9.4792  -8.6614  -8.6321  -8.5688  -8.5345
    -7.8438  -7.7929  -7.7511  -7.7075  -7.3933  -7.3716  -7.0726  -7.0560
    -6.5560  -6.4779  -6.4716  -6.3877  -6.2329  -6.1566  -6.0580  -6.0312
    -5.9224  -5.8350  -5.7518  -5.7443  -5.5234  -5.5009  -5.3309  -5.3174
    -5.1942  -5.1762  -4.9757  -4.9440  -4.5854  -4.5280  -4.5052  -4.4668
    -4.1069  -4.0198  -3.9788  -3.9286  -3.8763  -3.8234  -3.7688  -3.7443
    -3.7142  -3.6231  -3.5997  -3.5489  -3.3675  -3.2776  -3.2165  -3.1752
    -2.8526  -2.8228  -2.6896  -2.6320  -2.5130  -2.4790  -2.3725  -2.3402
    -2.2244  -2.1965  -2.1227  -2.0831  -1.5769  -1.5394  -1.4155  -1.3362
    -1.1647  -1.1485  -1.0612  -1.0417  -0.7935  -0.7845  -0.6761  -0.6369
    -0.1431  -0.1147  -0.0634  -0.0259   0.1245   0.1517   0.1957   0.2411
     0.2651   0.2883   0.3153   0.3226   0.6539   0.6742   0.7404   0.7765
     0.9525   0.9719   1.0402   1.0735   1.1530   1.1697   1.2850   1.3086

          k = 0.0156-0.0155 0.0131 ( 59482 PWs)   bands (ev):

   -20.7147 -20.7072 -20.6993 -20.6954 -19.2837 -19.2780 -19.2130 -19.2075
   -18.4297 -18.4287 -18.3199 -18.3193 -17.9881 -17.9860 -17.9728 -17.9721
   -16.1483 -16.1433 -16.1320 -16.1296 -15.0964 -15.0916 -15.0740 -15.0719
   -12.2476 -12.2293 -12.0982 -12.0824 -11.7141 -11.6985 -11.6584 -11.6393
    -9.5574  -9.5432  -9.4935  -9.4792  -8.6614  -8.6321  -8.5688  -8.5345
    -7.8438  -7.7928  -7.7511  -7.7075  -7.3934  -7.3716  -7.0725  -7.0561
    -6.5560  -6.4779  -6.4715  -6.3877  -6.2328  -6.1567  -6.0580  -6.0313
    -5.9223  -5.8351  -5.7519  -5.7442  -5.5233  -5.5009  -5.3310  -5.3174
    -5.1941  -5.1763  -4.9756  -4.9441  -4.5854  -4.5280  -4.5052  -4.4668
    -4.1069  -4.0198  -3.9788  -3.9285  -3.8762  -3.8234  -3.7688  -3.7443
    -3.7143  -3.6232  -3.5995  -3.5489  -3.3675  -3.2776  -3.2165  -3.1752
    -2.8525  -2.8228  -2.6894  -2.6321  -2.5131  -2.4789  -2.3725  -2.3402
    -2.2244  -2.1965  -2.1227  -2.0831  -1.5769  -1.5394  -1.4156  -1.3362
    -1.1647  -1.1485  -1.0612  -1.0418  -0.7937  -0.7843  -0.6760  -0.6369
    -0.1431  -0.1147  -0.0634  -0.0260   0.1244   0.1517   0.1957   0.2411
     0.2651   0.2884   0.3152   0.3226   0.6538   0.6743   0.7403   0.7765
     0.9524   0.9720   1.0402   1.0735   1.1530   1.1696   1.2850   1.3086

          k =-0.0156-0.0155 0.0131 ( 59482 PWs)   bands (ev):

   -20.7147 -20.7071 -20.6994 -20.6954 -19.2837 -19.2780 -19.2130 -19.2075
   -18.4297 -18.4287 -18.3199 -18.3193 -17.9882 -17.9859 -17.9729 -17.9720
   -16.1484 -16.1432 -16.1322 -16.1295 -15.0964 -15.0915 -15.0740 -15.0719
   -12.2476 -12.2293 -12.0982 -12.0823 -11.7141 -11.6984 -11.6584 -11.6393
    -9.5574  -9.5432  -9.4935  -9.4792  -8.6614  -8.6321  -8.5688  -8.5345
    -7.8438  -7.7929  -7.7511  -7.7075  -7.3933  -7.3716  -7.0726  -7.0560
    -6.5560  -6.4779  -6.4716  -6.3877  -6.2329  -6.1566  -6.0580  -6.0312
    -5.9224  -5.8350  -5.7518  -5.7443  -5.5234  -5.5009  -5.3309  -5.3174
    -5.1942  -5.1762  -4.9757  -4.9440  -4.5854  -4.5280  -4.5052  -4.4668
    -4.1069  -4.0198  -3.9788  -3.9286  -3.8763  -3.8234  -3.7687  -3.7443
    -3.7142  -3.6231  -3.5997  -3.5489  -3.3675  -3.2776  -3.2165  -3.1752
    -2.8526  -2.8228  -2.6896  -2.6320  -2.5130  -2.4790  -2.3725  -2.3402
    -2.2244  -2.1965  -2.1227  -2.0831  -1.5769  -1.5394  -1.4155  -1.3362
    -1.1647  -1.1485  -1.0612  -1.0417  -0.7935  -0.7845  -0.6761  -0.6369
    -0.1431  -0.1147  -0.0634  -0.0259   0.1245   0.1517   0.1957   0.2411
     0.2651   0.2883   0.3153   0.3226   0.6539   0.6742   0.7404   0.7765
     0.9525   0.9719   1.0402   1.0735   1.1530   1.1697   1.2850   1.3086

          k =-0.0156 0.0155 0.0131 ( 59482 PWs)   bands (ev):

   -20.7147 -20.7072 -20.6993 -20.6954 -19.2837 -19.2780 -19.2130 -19.2075
   -18.4297 -18.4287 -18.3199 -18.3193 -17.9881 -17.9860 -17.9728 -17.9721
   -16.1483 -16.1433 -16.1320 -16.1296 -15.0964 -15.0916 -15.0740 -15.0719
   -12.2476 -12.2293 -12.0982 -12.0824 -11.7141 -11.6985 -11.6584 -11.6393
    -9.5574  -9.5432  -9.4935  -9.4792  -8.6614  -8.6321  -8.5688  -8.5345
    -7.8438  -7.7928  -7.7511  -7.7075  -7.3934  -7.3716  -7.0725  -7.0561
    -6.5560  -6.4779  -6.4715  -6.3877  -6.2328  -6.1567  -6.0580  -6.0313
    -5.9223  -5.8351  -5.7519  -5.7442  -5.5233  -5.5009  -5.3310  -5.3174
    -5.1941  -5.1763  -4.9756  -4.9441  -4.5854  -4.5280  -4.5052  -4.4668
    -4.1069  -4.0198  -3.9788  -3.9285  -3.8762  -3.8234  -3.7688  -3.7443
    -3.7143  -3.6232  -3.5995  -3.5489  -3.3675  -3.2776  -3.2165  -3.1752
    -2.8525  -2.8228  -2.6894  -2.6321  -2.5131  -2.4789  -2.3725  -2.3402
    -2.2244  -2.1965  -2.1227  -2.0831  -1.5769  -1.5394  -1.4156  -1.3362
    -1.1647  -1.1485  -1.0612  -1.0418  -0.7937  -0.7843  -0.6760  -0.6369
    -0.1431  -0.1147  -0.0634  -0.0260   0.1244   0.1517   0.1957   0.2411
     0.2651   0.2884   0.3152   0.3226   0.6538   0.6743   0.7403   0.7765
     0.9524   0.9720   1.0402   1.0735   1.1530   1.1696   1.2850   1.3086
 TIME (initial):        0.0
 TIME (set up the environment):        0.1
 DOCALC: T F F T
 ESAVE:       0.000000000000       0.000000000000       0.000000000000
* XDM: using PAW all-electron density reconstruction? F
 TIME (promolecular grid):       19.1
 TIME (calculation of b grid):       20.3
 TIME (calculation of volumes and moments):      338.6
 
+ Volume and moments
# All results in atomic units.
# i              V                  Vfree                 M1                  M2                  M3
  1        21.1749474040        23.7788846669         4.0013781145        29.5182825667       305.9521663205
  2        21.1744986653        23.7788846669         4.0012303297        29.5169634224       305.9456017293
  3        21.1745076126        23.7788846669         4.0012138357        29.5168976359       305.9434069614
  4        21.1749512738        23.7788846669         4.0014083695        29.5182602901       305.9531127649
  5        21.2743801697        23.7788846669         3.8890705439        28.8628996476       302.1812768893
  6        21.2745561576        23.7788846669         3.8891890416        28.8636276857       302.1853496451
  7        21.2745539228        23.7788846669         3.8891812353        28.8637184936       302.1861872107
  8        21.2743845722        23.7788846669         3.8890719933        28.8630449070       302.1825950977
  9        21.2078793339        23.7788846669         4.2275201246        31.7266652473       323.4206347752
 10        21.2079444163        23.7788846669         4.2276140408        31.7272688881       323.4253832897
 11        21.2079440665        23.7788846669         4.2275940517        31.7269424941       323.4201584168
 12        21.2078790535        23.7788846669         4.2275593188        31.7269036486       323.4231790672
 13        21.2038209870        23.7788846669         4.2729277733        31.7441283951       317.9471352402
 14        21.2035512427        23.7788846669         4.2727792367        31.7433695379       317.9427949276
 15        21.2035522547        23.7788846669         4.2728554222        31.7436767502       317.9450119305
 16        21.2038147883        23.7788846669         4.2728764414        31.7441118579       317.9483237499
 17        25.3178761657        30.0572485474         4.1343502354        40.1537320024       532.7814936651
 18        25.3179061627        30.0572485474         4.1344452854        40.1541668486       532.7792471922
 19        25.3179032665        30.0572485474         4.1344499854        40.1543683329       532.7808191589
 20        25.3178806740        30.0572485474         4.1343195772        40.1533890920       532.7765656066
 21        26.5389207628        30.0572485474         4.0944454813        38.8333873850       515.5827298587
 22        26.5393487713        30.0572485474         4.0945927133        38.8345755340       515.5876467230
 23        26.5393586609        30.0572485474         4.0946091721        38.8346561508       515.5910946306
 24        26.5389285444        30.0572485474         4.0944530876        38.8334663313       515.5833818206
 25        32.7898784232        39.0349749523         3.5659453472        48.2207587206       917.0633486011
 26        32.7900781787        39.0349749523         3.5660529272        48.2208081431       917.0526789512
 27        32.7900805991        39.0349749523         3.5660494178        48.2209062364       917.0540807988
 28        32.7898856118        39.0349749523         3.5659392536        48.2206361642       917.0607128846
 29        33.2430062077        39.0349749523         3.4197802114        46.5138059102       895.5471708942
 30        33.2437532776        39.0349749523         3.4197680441        46.5145511602       895.5632326688
 31        33.2437567817        39.0349749523         3.4197264059        46.5142408204       895.5602024927
 32        33.2429974746        39.0349749523         3.4198604175        46.5145823231       895.5565304446
 33         7.9406415812        10.4882987305         1.5065634943        13.3645808106       259.5877933984
 34         7.9408808565        10.4882987305         1.5067512727        13.3652756119       259.5908494976
 35         7.9408819667        10.4882987305         1.5067363668        13.3650026852       259.5878001304
 36         7.9406385564        10.4882987305         1.5066077230        13.3650380893       259.5918455966
 37        33.3608443559        39.0349749523         3.3700239475        45.8344775544       890.0477049511
 38        33.3608986541        39.0349749523         3.3700734176        45.8347563184       890.0528659328
 39        33.3608973832        39.0349749523         3.3700581668        45.8348843897       890.0549516020
 40        33.3608469824        39.0349749523         3.3700320847        45.8345416303       890.0509509853
 41         8.0506759520        10.4882987305         1.4864643113        12.9535676708       254.5978823036
 42         8.0505925717        10.4882987305         1.4864740276        12.9535967940       254.5963576226
 43         8.0505955844        10.4882987305         1.4864866055        12.9537714054       254.5988026093
 44         8.0506760336        10.4882987305         1.4864634928        12.9535616729       254.5978807209
 45        32.4872508079        39.0349749523         3.7326431335        49.8482209412       919.7951868345
 46        32.4872749123        39.0349749523         3.7327131132        49.8490128475       919.8062281100
 47        32.4872765794        39.0349749523         3.7326817284        49.8485923854       919.7994894764
 48        32.4872470164        39.0349749523         3.7326633745        49.8483903554       919.7988924063
 49         7.8097094992        10.4882987305         1.5163753927        13.3997491128       262.4356812086
 50         7.8096932522        10.4882987305         1.5163976920        13.4000495051       262.4387743118
 51         7.8096952031        10.4882987305         1.5163757348        13.3998489498       262.4393870619
 52         7.8097082989        10.4882987305         1.5163669630        13.3996839695       262.4348736555
 53         7.8766826395        10.4882987305         1.5011426194        13.3347280652       262.5928809866
 54         7.8767237418        10.4882987305         1.5011982336        13.3349555327       262.5931179009
 55         7.8767240616        10.4882987305         1.5011903091        13.3349498081       262.5925361975
 56         7.8766822260        10.4882987305         1.5011363402        13.3348722229       262.5927550141
 57        33.1520416027        39.0349749523         3.3738567268        45.4157781444       883.9625119493
 58        33.1517457449        39.0349749523         3.3738486168        45.4157088354       883.9681190171
 59        33.1517372231        39.0349749523         3.3738570224        45.4156932625       883.9633112708
 60        33.1520380533        39.0349749523         3.3738710732        45.4161373604       883.9737457051
 61         7.9644348571        10.4882987305         1.4814284724        13.0303396867       254.7034607569
 62         7.9643989626        10.4882987305         1.4814282476        13.0304570766       254.7076598981
 63         7.9643945870        10.4882987305         1.4814111136        13.0304437892       254.7049485689
 64         7.9644334170        10.4882987305         1.4814575765        13.0305773725       254.7079562544
 65        33.3166248800        39.0349749523         3.3666471686        45.8282784778       887.7086606980
 66        33.3165022593        39.0349749523         3.3666021716        45.8279287096       887.7139026221
 67        33.3164989706        39.0349749523         3.3666225503        45.8280909387       887.7128214950
 68        33.3166263404        39.0349749523         3.3666619927        45.8285465810       887.7166960063
 69         8.0358785283        10.4882987305         1.4676806685        12.7654187625       251.5727157655
 70         8.0357607109        10.4882987305         1.4677063676        12.7656422527       251.5787717300
 71         8.0357586891        10.4882987305         1.4676612007        12.7655117071       251.5771869839
 72         8.0358797087        10.4882987305         1.4677231582        12.7656224359       251.5752366713
 73         8.1036363601        10.4882987305         1.3981314726        13.6325055354       262.5573997970
 74         8.1035494995        10.4882987305         1.3981283344        13.6322571761       262.5600054860
 75         8.1035499131        10.4882987305         1.3981764733        13.6324582289       262.5600258376
 76         8.1036342215        10.4882987305         1.3980673915        13.6324750279       262.5608338522
 77         7.8548877439        10.4882987305         1.4398597747        13.9161739317       268.3736515906
 78         7.8549438832        10.4882987305         1.4398472202        13.9160971098       268.3701889365
 79         7.8549418894        10.4882987305         1.4398896265        13.9163108777       268.3710921513
 80         7.8548888799        10.4882987305         1.4398470517        13.9159109751       268.3702039522
 81         8.2174305455        10.4882987305         1.4617055321        14.0334154578       266.8272774416
 82         8.2174127794        10.4882987305         1.4617468835        14.0338106263       266.8312524622
 83         8.2174116605        10.4882987305         1.4617094062        14.0334577559       266.8270993993
 84         8.2174290981        10.4882987305         1.4617538078        14.0336622292       266.8272102723
 85         8.0628785330        10.4882987305         1.4247290362        13.8864069415       269.6553314641
 86         8.0628696103        10.4882987305         1.4246582229        13.8864245489       269.6569065490
 87         8.0628690796        10.4882987305         1.4246213323        13.8862588798       269.6549822886
 88         8.0628801219        10.4882987305         1.4247381206        13.8863053817       269.6541210714
 
+ Dispersion coefficients
# All results in atomic units.
# i   j          C6             C8             C10               Rc             Rvdw
  1   1         9.6423175876       213.3949706878      5152.9811698887         4.8088151194         6.6595487303
  1   2         9.6420373551       213.3879413289      5152.8371390593         4.8088166110         6.6595489332
  1   3         9.6420195187       213.3877486110      5152.8272804140         4.8088165006         6.6595489182
  1   4         9.6423549221       213.3949096664      5152.9762068883         4.8088093675         6.6595479481
  1   5         9.5270219774       211.4794646571      5128.1020734925         4.8174866840         6.6607280631
  1   6         9.5272082754       211.4830437629      5128.1657052370         4.8174780440         6.6607268881
  1   7         9.5271980636       211.4833636347      5128.1785730976         4.8174823288         6.6607274708
  1   8         9.5270247516       211.4800204715      5128.1196821041         4.8174904417         6.6607285741
  1   9         9.9152122111       221.3346418474      5338.9014265763         4.8177227671         6.6607601704
  1  10         9.9153350246       221.3370274180      5338.9487749167         4.8177185255         6.6607595935
  1  11         9.9153121258       221.3358957375      5338.9062923933         4.8177117226         6.6607586683
  1  12         9.9152568792       221.3354428511      5338.9192969651         4.8177213821         6.6607599820
  1  13         9.9657711883       221.3321635322      5301.0257984614         4.8030134330         6.6587597010
  1  14         9.9655381107       221.3281927777      5300.9580343971         4.8030261624         6.6587614322
  1  15         9.9656243459       221.3292026552      5300.9691022526         4.8030183033         6.6587603633
  1  16         9.9657117475       221.3321196901      5301.0439041674         4.8030246636         6.6587612283
  1  17        11.0918923863       284.3282191889      7892.7284504110         5.1655049409         6.7080585460
  1  18        11.0920401650       284.3300422845      7892.7152399272         5.1654855543         6.7080559095
  1  19        11.0920466216       284.3308349205      7892.7379729137         5.1654884859         6.7080563082
  1  20        11.0918474748       284.3268862320      7892.6874957478         5.1655034713         6.7080583462
  1  21        11.2604863328       284.8019551914      7866.8988130314         5.1419976767         6.7048615581
  1  22        11.2607953656       284.8089121787      7867.0220359058         5.1419824246         6.7048594838
  1  23        11.2608229966       284.8092996338      7867.0424728055         5.1419826538         6.7048595150
  1  24        11.2604996874       284.8023210320      7866.9070405979         5.1419974902         6.7048615327
  1  25        12.0140401452       376.6329993431     13050.1971233668         5.7421249434         6.7864788664
  1  26        12.0143155415       376.6345308204     13050.0912581206         5.7420805521         6.7864728292
  1  27        12.0143075432       376.6350156270     13050.1132903644         5.7420838941         6.7864732837
  1  28        12.0140265863       376.6323713462     13050.1710027729         5.7421236952         6.7864786966
  1  29        11.7121435856       368.5535974707     12860.9665958343         5.7577929904         6.7886097208
  1  30        11.7121901393       368.5597411350     12861.2462015544         5.7578183740         6.7886131729
  1  31        11.7120891579       368.5578786455     12861.2164139878         5.7578274304         6.7886144046
  1  32        11.7123378949       368.5580962624     12861.0668335012         5.7577803277         6.7886079986
  1  33         4.7374868783       115.4615576135      3659.1610744590         5.2793709258         6.7235443200
  1  34         4.7379217503       115.4675765390      3659.2181063596         5.2792705300         6.7235306662
  1  35         4.7378913996       115.4661731876      3659.1779301545         5.2792648933         6.7235298996
  1  36         4.7375769952       115.4640601989      3659.2145623297         5.2793645521         6.7235434532
  1  37        11.6022739421       365.0829688299     12791.8962616848         5.7637155921         6.7894151946
  1  38        11.6024009998       365.0849318945     12791.9398864533         5.7637048197         6.7894137295
  1  39        11.6023633668       365.0854802520     12791.9762764635         5.7637135046         6.7894149107
  1  40        11.6022942151       365.0833661259     12791.9211961930         5.7637159223         6.7894152395
  1  41         4.7182724782       113.8852539385      3611.7412607743         5.2681422234         6.7220172165
  1  42         4.7182761074       113.8850770593      3611.7183320414         5.2681327012         6.7220159214
  1  43         4.7183030041       113.8860357627      3611.7471591532         5.2681355165         6.7220163043
  1  44         4.7182707835       113.8852184355      3611.7409549904         5.2681425957         6.7220172671
  1  45        12.3654174794       384.5341888208     13101.6133046696         5.7062981901         6.7816064279
  1  46        12.3655796978       384.5385245718     13101.7294408568         5.7062921086         6.7816056008
  1  47        12.3655084304       384.5363017261     13101.6603875321         5.7062928231         6.7816056980
  1  48        12.3654631189       384.5351067241     13101.6428099912         5.7062961629         6.7816061522
  1  49         4.7298972081       115.0338827144      3655.5052278311         5.2804486095         6.7236908850
  1  50         4.7299387536       115.0353766334      3655.5425437442         5.2804500795         6.7236910849
  1  51         4.7298948441       115.0342781954      3655.5355066307         5.2804602572         6.7236924691
  1  52         4.7298799339       115.0335063310      3655.4968442759         5.2804504384         6.7236911337
  1  53         4.7130818548       114.9526399447      3666.8199822101         5.2892927993         6.7248936948
  1  54         4.7132041756       114.9543680308      3666.8296188741         5.2892618684         6.7248894882
  1  55         4.7131880343       114.9542788982      3666.8284033285         5.2892658282         6.7248900267
  1  56         4.7130689255       114.9532661967      3666.8354787220         5.2893014588         6.7248948725
  1  57        11.5908264278       362.2964752028     12680.3921317010         5.7526810981         6.7879145034
  1  58        11.5907768622       362.2951313327     12680.3952753332         5.7526876965         6.7879154008
  1  59        11.5907965912       362.2950846730     12680.3549915617         5.7526806467         6.7879144420
  1  60        11.5908612045       362.2984181626     12680.4992175307         5.7526889478         6.7879155710
  1  61         4.6904323944       113.7862997585      3608.3967781216         5.2744170938         6.7228705988
  1  62         4.6904246751       113.7866793930      3608.4293841884         5.2744312212         6.7228725202
  1  63         4.6903881525       113.7864460229      3608.4162529305         5.2744362594         6.7228732054
  1  64         4.6904926395       113.7876743102      3608.4381099734         5.2744152692         6.7228703507
  1  65        11.5895760537       364.8885505196     12772.1697499945         5.7630293934         6.7893218716
  1  66        11.5894532237       364.8860400842     12772.1801897168         5.7630459420         6.7893241222
  1  67        11.5895030058       364.8870127054     12772.1783278136         5.7630395132         6.7893232479
  1  68        11.5896126496       364.8900451213     12772.2455636043         5.7630334190         6.7893224191
  1  69         4.6759197498       112.7460836287      3578.1301740521         5.2678084591         6.7219718245
  1  70         4.6759506353       112.7468281884      3578.1643245953         5.2678125069         6.7219723750
  1  71         4.6758551138       112.7457784766      3578.1563543063         5.2678362337         6.7219756018
  1  72         4.6760094671       112.7474541471      3578.1521095995         5.2677913250         6.7219694943
  1  73         4.5395103287       116.6260123671      3770.5719792354         5.3743686949         6.7364640166
  1  74         4.5394875867       116.6243675482      3770.5519304946         5.3743692018         6.7364640855
  1  75         4.5395929576       116.6257678771      3770.5538895422         5.3743386982         6.7364599370
  1  76         4.5393697673       116.6252956790      3770.6154609472         5.3744254255         6.7364717319
  1  77         4.5816172557       117.1197436280      3780.5448297052         5.3656969673         6.7352846616
  1  78         4.5816020059       117.1195662794      3780.5294907692         5.3656957625         6.7352844978
  1  79         4.5816907004       117.1208976520      3780.5387923514         5.3656730471         6.7352814085
  1  80         4.5815907516       117.1183979364      3780.5023092129         5.3656899500         6.7352837073
  1  81         4.6984082005       119.6525444081      3831.4467939448         5.3496764227         6.7331058676
  1  82         4.6984934644       119.6547069500      3831.4931697726         5.3496680394         6.7331047274
  1  83         4.6984129094       119.6526889369      3831.4454513903         5.3496745236         6.7331056093
  1  84         4.6985114161       119.6541281056      3831.4522980411         5.3496488072         6.7331021118
  1  85         4.5896627468       117.8882140693      3825.2365247015         5.3791471775         6.7371138902
  1  86         4.5895085813       117.8876744985      3825.2751850146         5.3792051906         6.7371217800
  1  87         4.5894290432       117.8865684813      3825.2608371461         5.3792233315         6.7371242471
  1  88         4.5896826078       117.8878056069      3825.2152272299         5.3791341688         6.7371121210
  2   2         9.6417571314       213.3809122115      5152.6931127010         4.8088181027         6.6595491360
  2   3         9.6417392956       213.3807195046      5152.6832543914         4.8088179923         6.6595491210
  2   4         9.6420746883       213.3878802998      5152.8321762178         4.8088108591         6.6595481509
  2   5         9.5267463386       211.4725284522      5127.9592643193         4.8174881460         6.6607282619
  2   6         9.5269326304       211.4761074199      5128.0228939727         4.8174795059         6.6607270869
  2   7         9.5269224189       211.4764272850      5128.0357614060         4.8174837907         6.6607276696
  2   8         9.5267491127       211.4730842501      5127.9768723406         4.8174919036         6.6607287730
  2   9         9.9149219635       221.3273117978      5338.7507279441         4.8177241633         6.6607603603
  2  10         9.9150447726       221.3296972714      5338.7980746227         4.8177199218         6.6607597834
  2  11         9.9150218747       221.3285656301      5338.7555935283         4.8177131189         6.6607588582
  2  12         9.9149666299       221.3281127661      5338.7685976715         4.8177227784         6.6607601719
  2  13         9.9654790345       221.3248197520      5300.8761915745         4.8030148793         6.6587598977
  2  14         9.9652459646       221.3208491530      5300.8084296274         4.8030276086         6.6587616288
  2  15         9.9653321966       221.3218589781      5300.8194969830         4.8030197496         6.6587605600
  2  16         9.9654195959       221.3247759264      5300.8942967550         4.8030261098         6.6587614250
  2  17        11.0915799196       284.3192575427      7892.5064727648         5.1655051164         6.7080585699
  2  18        11.0917276932       284.3210805501      7892.4932623042         5.1654857299         6.7080559333
  2  19        11.0917341496       284.3218731619      7892.5159945117         5.1654886614         6.7080563320
  2  20        11.0915350097       284.3179246356      7892.4655195157         5.1655036468         6.7080583700
  2  21        11.2601715928       284.7930283568      7866.6799149141         5.1419979687         6.7048615978
  2  22        11.2604806161       284.7999851014      7866.8031339073         5.1419827167         6.7048595235
  2  23        11.2605082462       284.8003725392      7866.8235701775         5.1419829459         6.7048595547
  2  24        11.2601849470       284.7933941844      7866.6881421998         5.1419977822         6.7048615724
  2  25        12.0137286294       376.6222024549     13049.8481371814         5.7421238886         6.7864787229
  2  26        12.0140040176       376.6237338388     13049.7422745343         5.7420794974         6.7864726857
  2  27        12.0139960196       376.6242186348     13049.7643061417         5.7420828395         6.7864731402
  2  28        12.0137150709       376.6215744778     13049.8220173926         5.7421226404         6.7864785532
  2  29        11.7118420294       368.5431030590     12860.6249014727         5.7577919235         6.7886095757
  2  30        11.7118885829       368.5492465921     12860.9045002859         5.7578173070         6.7886130278
  2  31        11.7117876045       368.5473841739     12860.8747138779         5.7578263634         6.7886142595
  2  32        11.7120363327       368.5476016899     12860.7251356550         5.7577792609         6.7886078536
  2  33         4.7373605641       115.4580725214      3659.0646255296         5.2793717519         6.7235444323
  2  34         4.7377954229       115.4640912101      3659.1216555113         5.2792713564         6.7235307785
  2  35         4.7377650732       115.4626879028      3659.0814806076         5.2792657197         6.7235300120
  2  36         4.7374506781       115.4605750201      3659.1181115579         5.2793653781         6.7235435655
  2  37        11.6019758955       365.0725946268     12791.5571974101         5.7637145338         6.7894150507
  2  38        11.6021029493       365.0745576148     12791.6008207332         5.7637037614         6.7894135856
  2  39        11.6020653175       365.0751059667     12791.6372097492         5.7637124463         6.7894147668
  2  40        11.6019961678       365.0729919082     12791.5821312021         5.7637148640         6.7894150956
  2  41         4.7181471323       113.8818235317      3611.6465982693         5.2681431399         6.7220173411
  2  42         4.7181507611       113.8816466501      3611.6236699730         5.2681336178         6.7220160461
  2  43         4.7181776570       113.8826053224      3611.6524961733         5.2681364330         6.7220164290
  2  44         4.7181454377       113.8817880300      3611.6462924994         5.2681435122         6.7220173917
  2  45        12.3650945778       384.5230861607     13101.2607637259         5.7062971587         6.7816062877
  2  46        12.3652567912       384.5274217612     13101.3768960593         5.7062910771         6.7816054606
  2  47        12.3651855259       384.5251989906     13101.3078449737         5.7062917916         6.7816055577
  2  48        12.3651402159       384.5240040289     13101.2902680734         5.7062951314         6.7816060119
  2  49         4.7297707045       115.0304001511      3655.4086107708         5.2804494588         6.7236910005
  2  50         4.7298122487       115.0318940196      3655.4459253980         5.2804509288         6.7236912004
  2  51         4.7297683406       115.0307956208      3655.4388886604         5.2804611064         6.7236925845
  2  52         4.7297534309       115.0300237815      3655.4002274996         5.2804512876         6.7236912492
  2  53         4.7129561158       114.9491686756      3666.7232508653         5.2892936277         6.7248938074
  2  54         4.7130784329       114.9508966921      3666.7328870847         5.2892626968         6.7248896008
  2  55         4.7130622921       114.9508075654      3666.7316715886         5.2892666567         6.7248901394
  2  56         4.7129431870       114.9497949138      3666.7387468641         5.2893022871         6.7248949851
  2  57        11.5905283986       362.2861649202     12680.0560283077         5.7526800845         6.7879143656
  2  58        11.5904788342       362.2848210812     12680.0591716028         5.7526866830         6.7879152630
  2  59        11.5904985625       362.2847744179     12680.0188888439         5.7526796332         6.7879143042
  2  60        11.5905631743       362.2881078219     12680.1631110385         5.7526879343         6.7879154331
  2  61         4.6903076656       113.7828713955      3608.3020107541         5.2744179635         6.7228707171
  2  62         4.6902999463       113.7832510189      3608.3346158054         5.2744320909         6.7228726384
  2  63         4.6902634249       113.7830176626      3608.3214849238         5.2744371290         6.7228733236
  2  64         4.6903679087       113.7842458975      3608.3433412822         5.2744161389         6.7228704690
  2  65        11.5892783211       364.8781820210     12771.8311577615         5.7630283291         6.7893217268
  2  66        11.5891554947       364.8756716720     12771.8415975068         5.7630448776         6.7893239774
  2  67        11.5892052753       364.8766442567     12771.8397354492         5.7630384488         6.7893231031
  2  68        11.5893149160       364.8796765760     12771.9069691568         5.7630323547         6.7893222743
  2  69         4.6757957088       112.7426914530      3578.0365491493         5.2678093863         6.7219719506
  2  70         4.6758265929       112.7434359775      3578.0706983891         5.2678134341         6.7219725011
  2  71         4.6757310745       112.7423863138      3578.0627284695         5.2678371607         6.7219757279
  2  72         4.6758854233       112.7440619159      3578.0584839031         5.2677922522         6.7219696204
  2  73         4.5393908095       116.6225521775      3770.4728132972         5.3743690787         6.7364640688
  2  74         4.5393680680       116.6209074004      3770.4527651431         5.3743695856         6.7364641377
  2  75         4.5394734356       116.6223076695      3770.4547239024         5.3743390821         6.7364599892
  2  76         4.5392502526       116.6218355387      3770.5162939918         5.3744258090         6.7364717841
  2  77         4.5814956574       117.1162420170      3780.4446955990         5.3656973923         6.7352847194
  2  78         4.5814804083       117.1160646809      3780.4293572472         5.3656961874         6.7352845556
  2  79         4.5815690999       117.1173959983      3780.4386583398         5.3656734721         6.7352814663
  2  80         4.5814691542       117.1148963670      3780.4021764610         5.3656903750         6.7352837651
  2  81         4.6982839989       119.6489781928      3831.3457913555         5.3496768684         6.7331059282
  2  82         4.6983692601       119.6511406574      3831.3921655560         5.3496684852         6.7331047881
  2  83         4.6982887076       119.6491227153      3831.3444487666         5.3496749694         6.7331056699
  2  84         4.6983872112       119.6505618257      3831.3512950351         5.3496492530         6.7331021725
  2  85         4.5895415262       117.8847065585      3825.1356074206         5.3791475688         6.7371139434
  2  86         4.5893873656       117.8841670352      3825.1742668095         5.3792055817         6.7371218332
  2  87         4.5893078300       117.8830610647      3825.1599195126         5.3792237225         6.7371243003
  2  88         4.5895613866       117.8842981027      3825.1143105767         5.3791345602         6.7371121743
  3   3         9.6417214599       213.3805267988      5152.6733961352         4.8088178819         6.6595491060
  3   4         9.6420568517       213.3876875811      5152.8223175025         4.8088107487         6.6595481359
  3   5         9.5267290743       211.4723448272      5127.9496736241         4.8174880415         6.6607282477
  3   6         9.5269153654       211.4759237870      5128.0133030054         4.8174794015         6.6607270727
  3   7         9.5269051540       211.4762436517      5128.0261704481         4.8174836863         6.6607276554
  3   8         9.5267318484       211.4729006241      5127.9672816318         4.8174917991         6.6607287588
  3   9         9.9149030206       221.3270966796      5338.7402664792         4.8177240744         6.6607603482
  3  10         9.9150258292       221.3294821464      5338.7876129341         4.8177198328         6.6607597713
  3  11         9.9150029314       221.3283505080      5338.7451319258         4.8177130299         6.6607588461
  3  12         9.9149476868       221.3278976450      5338.7581361073         4.8177226895         6.6607601598
  3  13         9.9654598720       221.3246029655      5300.8656914589         4.8030147803         6.6587598842
  3  14         9.9652268027       221.3206323748      5300.7979298290         4.8030275097         6.6587616154
  3  15         9.9653130344       221.3216421953      5300.8089970184         4.8030196507         6.6587605466
  3  16         9.9654004336       221.3245591417      5300.8837967268         4.8030260109         6.6587614116
  3  17        11.0915622583       284.3190372078      7892.4950491910         5.1655052781         6.7080585919
  3  18        11.0917100314       284.3208602085      7892.4818384968         5.1654858915         6.7080559553
  3  19        11.0917164877       284.3216528187      7892.5045706822         5.1654888230         6.7080563540
  3  20        11.0915173486       284.3177043043      7892.4540960626         5.1655038084         6.7080583920
  3  21        11.2601543779       284.7928288803      7866.6688987842         5.1419981050         6.7048616164
  3  22        11.2604634005       284.7997856145      7866.7921174095         5.1419828530         6.7048595421
  3  23        11.2604910305       284.8001730511      7866.8125536068         5.1419830822         6.7048595732
  3  24        11.2601677320       284.7931947071      7866.6771260460         5.1419979185         6.7048615910
  3  25        12.0137172742       376.6220981885     13049.8397270290         5.7421242955         6.7864787783
  3  26        12.0139926619       376.6236295681     13049.7338639938         5.7420799043         6.7864727411
  3  27        12.0139846639       376.6241143639     13049.7558956197         5.7420832463         6.7864731956
  3  28        12.0137037157       376.6214702125     13049.8136072765         5.7421230473         6.7864786085
  3  29        11.7118315749       368.5430194685     12860.6173014686         5.7577923322         6.7886096312
  3  30        11.7118781286       368.5491630061     12860.8969005435         5.7578177157         6.7886130834
  3  31        11.7117771505       368.5473005917     12860.8671143277         5.7578267721         6.7886143151
  3  32        11.7120258778       368.5475180913     12860.7175352776         5.7577796696         6.7886079091
  3  33         4.7373550833       115.4580382021      3659.0606469599         5.2793717485         6.7235444319
  3  34         4.7377899412       115.4640568817      3659.1176763635         5.2792713530         6.7235307781
  3  35         4.7377595915       115.4626535766      3659.0775015165         5.2792657163         6.7235300115
  3  36         4.7374451970       115.4605406962      3659.1141328310         5.2793653748         6.7235435650
  3  37        11.6019657355       365.0725180165     12791.5498388252         5.7637149401         6.7894151059
  3  38        11.6020927892       365.0744810010     12791.5934619178         5.7637041677         6.7894136409
  3  39        11.6020551574       365.0750293532     12791.6298510105         5.7637128526         6.7894148220
  3  40        11.6019860079       365.0729152972     12791.5747725650         5.7637152703         6.7894151508
  3  41         4.7181418054       113.8817938115      3611.6427309797         5.2681431162         6.7220173379
  3  42         4.7181454342       113.8816169281      3611.6198026367         5.2681335940         6.7220160429
  3  43         4.7181723300       113.8825755990      3611.6486287880         5.2681364093         6.7220164257
  3  44         4.7181401108       113.8817583098      3611.6424252123         5.2681434885         6.7220173885
  3  45        12.3650822337       384.5229613641     13101.2516020742         5.7062975625         6.7816063426
  3  46        12.3652444466       384.5272969569     13101.3677340849         5.7062914809         6.7816055155
  3  47        12.3651731816       384.5250741903     13101.2986831538         5.7062921954         6.7816056127
  3  48        12.3651278716       384.5238792303     13101.2811063162         5.7062955352         6.7816060669
  3  49         4.7297651195       115.0303634174      3655.4045391392         5.2804494498         6.7236909992
  3  50         4.7298066634       115.0318572830      3655.4418536798         5.2804509198         6.7236911992
  3  51         4.7297627555       115.0307588864      3655.4348170029         5.2804610975         6.7236925833
  3  52         4.7297478459       115.0299870485      3655.3961558993         5.2804512787         6.7236912480
  3  53         4.7129506415       114.9491339024      3666.7192485315         5.2892936229         6.7248938068
  3  54         4.7130729582       114.9508619156      3666.7288845768         5.2892626920         6.7248896002
  3  55         4.7130568174       114.9507727893      3666.7276691133         5.2892666518         6.7248901387
  3  56         4.7129377127       114.9497601400      3666.7347445641         5.2893022823         6.7248949845
  3  57        11.5905181689       362.2860880148     12680.0485813444         5.7526804809         6.7879144195
  3  58        11.5904686044       362.2847441738     12680.0517245518         5.7526870794         6.7879153169
  3  59        11.5904883327       362.2846975100     12680.0114417765         5.7526800295         6.7879143581
  3  60        11.5905529445       362.2880309141     12680.1556639740         5.7526883306         6.7879154870
  3  61         4.6903023347       113.7828403450      3608.2981411795         5.2744179502         6.7228707153
  3  62         4.6902946155       113.7832199673      3608.3307461994         5.2744320776         6.7228726366
  3  63         4.6902580941       113.7829866117      3608.3176153972         5.2744371158         6.7228733218
  3  64         4.6903625777       113.7842148443      3608.3394715869         5.2744161257         6.7228704672
  3  65        11.5892681689       364.8781052054     12771.8238164315         5.7630287368         6.7893217823
  3  66        11.5891453426       364.8755948592     12771.8342562947         5.7630452854         6.7893240329
  3  67        11.5891951231       364.8765674420     12771.8323941591         5.7630388566         6.7893231586
  3  68        11.5893047637       364.8795997583     12771.8996277343         5.7630327624         6.7893223298
  3  69         4.6757904816       112.7426633824      3578.0327530477         5.2678093601         6.7219719470
  3  70         4.6758213655       112.7434079031      3578.0669021335         5.2678134078         6.7219724975
  3  71         4.6757258473       112.7423582421      3578.0589323789         5.2678371345         6.7219757244
  3  72         4.6758801958       112.7440338424      3578.0546876450         5.2677922260         6.7219696168
  3  73         4.5393859955       116.6225236109      3770.4692930887         5.3743691717         6.7364640814
  3  74         4.5393632540       116.6208788341      3770.4492448801         5.3743696787         6.7364641504
  3  75         4.5394686214       116.6222790999      3770.4512034677         5.3743391751         6.7364600019
  3  76         4.5392454390       116.6218069753      3770.5127740073         5.3744259021         6.7364717968
  3  77         4.5814905186       117.1162066467      3780.4409150563         5.3656974763         6.7352847309
  3  78         4.5814752696       117.1160293124      3780.4255767897         5.3656962714         6.7352845670
  3  79         4.5815639610       117.1173606266      3780.4348777297         5.3656735561         6.7352814777
  3  80         4.5814640155       117.1148609987      3780.3983959719         5.3656904590         6.7352837765
  3  81         4.6982788724       119.6489460780      3831.3420645939         5.3496769489         6.7331059391
  3  82         4.6983641333       119.6511085384      3831.3884386339         5.3496685657         6.7331047990
  3  83         4.6982835810       119.6490905999      3831.3407219887         5.3496750499         6.7331056809
  3  84         4.6983820844       119.6505297074      3831.3475681082         5.3496493335         6.7331021834
  3  85         4.5895365491       117.8846748792      3825.1319418343         5.3791476597         6.7371139558
  3  86         4.5893823889       117.8841353591      3825.1706014860         5.3792056726         6.7371218456
  3  87         4.5893028535       117.8830293911      3825.1562543325         5.3792238134         6.7371243127
  3  88         4.5895564094       117.8842664235      3825.1106449559         5.3791346510         6.7371121866
  4   4         9.6423922569       213.3948486442      5152.9712439948         4.8088036156         6.6595471658
  4   5         9.5270582830       211.4793938966      5128.0968892354         4.8174809384         6.6607272817
  4   6         9.5272445820       211.4829730075      5128.1605210443         4.8174722984         6.6607261066
  4   7         9.5272343701       211.4832928808      5128.1733888687         4.8174765832         6.6607266894
  4   8         9.5270610572       211.4799497129      5128.1144978237         4.8174846960         6.6607277927
  4   9         9.9152515791       221.3346082623      5338.8966778981         4.8177169663         6.6607593815
  4  10         9.9153743934       221.3369938389      5338.9440263546         4.8177127247         6.6607588046
  4  11         9.9153514944       221.3358621541      5338.9015437827         4.8177059218         6.6607578794
  4  12         9.9152962476       221.3354092688      5338.9145483660         4.8177155814         6.6607591931
  4  13         9.9658109568       221.3321297210      5301.0210676270         4.8030076212         6.6587589106
  4  14         9.9655778778       221.3281589631      5300.9533034753         4.8030203506         6.6587606418
  4  15         9.9656641137       221.3291688440      5300.9643714802         4.8030124915         6.6587595729
  4  16         9.9657515155       221.3320858794      5301.0391732260         4.8030188518         6.6587604379
  4  17        11.0919306957       284.3281805454      7892.7203762047         5.1654992060         6.7080577661
  4  18        11.0920784754       284.3300036450      7892.7071658554         5.1654798194         6.7080551295
  4  19        11.0920849320       284.3307962838      7892.7298988102         5.1654827509         6.7080555282
  4  20        11.0918857839       284.3268475842      7892.6794214652         5.1654977364         6.7080575662
  4  21        11.2605240639       284.8018733162      7866.8899626746         5.1419919760         6.7048607828
  4  22        11.2608330981       284.8088303086      7867.0131854252         5.1419767239         6.7048587085
  4  23        11.2608607293       284.8092177643      7867.0336224124         5.1419769531         6.7048587397
  4  24        11.2605374186       284.8022391577      7866.8981902444         5.1419917895         6.7048607574
  4  25        12.0140690176       376.6327989602     13050.1784193428         5.7421194848         6.7864781240
  4  26        12.0143444150       376.6343304299     13050.0725544021         5.7420750934         6.7864720868
  4  27        12.0143364167       376.6348152378     13050.0945865844         5.7420784355         6.7864725413
  4  28        12.0140554586       376.6321709619     13050.1522987384         5.7421182365         6.7864779542
  4  29        11.7121707335       368.5533740125     12860.9473601913         5.7577875514         6.7886089811
  4  30        11.7122172868       368.5595176722     12861.2269650530         5.7578129350         6.7886124332
  4  31        11.7121163049       368.5576551808     12861.1971773746         5.7578219914         6.7886136649
  4  32        11.7123650436       368.5578728100     12861.0475980172         5.7577748888         6.7886072589
  4  33         4.7374998921       115.4614388466      3659.1570613292         5.2793660668         6.7235436592
  4  34         4.7379347661       115.4674577669      3659.2140934606         5.2792656710         6.7235300053
  4  35         4.7379044152       115.4660544124      3659.1739172878         5.2792600343         6.7235292387
  4  36         4.7375900095       115.4639414363      3659.2105492087         5.2793596930         6.7235427923
  4  37        11.6023005162       365.0827373970     12791.8769765343         5.7637101724         6.7894144575
  4  38        11.6024275744       365.0847004616     12791.9206014717         5.7636993999         6.7894129925
  4  39        11.6023899413       365.0852488214     12791.9569913387         5.7637080849         6.7894141736
  4  40        11.6023207893       365.0831346934     12791.9019111011         5.7637105026         6.7894145024
  4  41         4.7182852254       113.8851274501      3611.7372011191         5.2681374123         6.7220165621
  4  42         4.7182888548       113.8849505732      3611.7142724603         5.2681278901         6.7220152671
  4  43         4.7183157516       113.8859092782      3611.7430995666         5.2681307054         6.7220156500
  4  44         4.7182835307       113.8850919469      3611.7368953351         5.2681377846         6.7220166128
  4  45        12.3654482626       384.5340082520     13101.5949246094         5.7062926814         6.7816056787
  4  46        12.3656104817       384.5383440099     13101.7110609124         5.7062865999         6.7816048517
  4  47        12.3655392139       384.5361211600     13101.6420075351         5.7062873144         6.7816049488
  4  48        12.3654939023       384.5349261568     13101.6244300174         5.7062906542         6.7816054030
  4  49         4.7299103846       115.0337679359      3655.5014107606         5.2804437732         6.7236902272
  4  50         4.7299519303       115.0352618585      3655.5387266751         5.2804452432         6.7236904272
  4  51         4.7299080206       115.0341634186      3655.5316895864         5.2804554209         6.7236918113
  4  52         4.7298931103       115.0333915520      3655.4930271924         5.2804456021         6.7236904760
  4  53         4.7130948369       114.9525228882      3666.8160753408         5.2892879683         6.7248930378
  4  54         4.7132171583       114.9542509740      3666.8257120791         5.2892570374         6.7248888312
  4  55         4.7132010169       114.9541618416      3666.8244964930         5.2892609972         6.7248893697
  4  56         4.7130819076       114.9531491424      3666.8315717467         5.2892966277         6.7248942154
  4  57        11.5908531052       362.2962424923     12680.3731976466         5.7526756973         6.7879137689
  4  58        11.5908035397       362.2948986272     12680.3763415814         5.7526822957         6.7879146663
  4  59        11.5908232688       362.2948519672     12680.3360578018         5.7526752459         6.7879137075
  4  60        11.5908878821       362.2981854558     12680.4802835148         5.7526835470         6.7879148365
  4  61         4.6904451239       113.7861769586      3608.3927367420         5.2744122591         6.7228699413
  4  62         4.6904374046       113.7865565957      3608.4253428489         5.2744263865         6.7228718626
  4  63         4.6904008818       113.7863232262      3608.4122114848         5.2744314247         6.7228725478
  4  64         4.6905053693       113.7875515122      3608.4340686621         5.2744104346         6.7228696932
  4  65        11.5896026043       364.8883199879     12772.1504438255         5.7630239669         6.7893211336
  4  66        11.5894797739       364.8858095527     12772.1608836672         5.7630405155         6.7893233842
  4  67        11.5895295562       364.8867821748     12772.1590217716         5.7630340867         6.7893225099
  4  68        11.5896392005       364.8898145919     12772.2262574807         5.7630279925         6.7893216811
  4  69         4.6759322983       112.7459559288      3578.1261032439         5.2678036563         6.7219711713
  4  70         4.6759631842       112.7467004937      3578.1602539788         5.2678077041         6.7219717218
  4  71         4.6758676622       112.7456507822      3578.1522835519         5.2678314308         6.7219749487
  4  72         4.6760220162       112.7473264480      3578.1480388944         5.2677865221         6.7219688411
  4  73         4.5395220878       116.6258967554      3770.5672407090         5.3743636966         6.7364633368
  4  74         4.5394993458       116.6242519360      3770.5471922230         5.3743642036         6.7364634058
  4  75         4.5396047173       116.6256522652      3770.5491513736         5.3743337000         6.7364592573
  4  76         4.5393815258       116.6251800698      3770.6107222067         5.3744204271         6.7364710522
  4  77         4.5816295788       117.1196370489      3780.5404588211         5.3656919832         6.7352839838
  4  78         4.5816143289       117.1194596981      3780.5251197564         5.3656907784         6.7352838199
  4  79         4.5817030238       117.1207910719      3780.5344214288         5.3656680629         6.7352807306
  4  80         4.5816030746       117.1182913543      3780.4979383571         5.3656849660         6.7352830294
  4  81         4.6984206051       119.6524279696      3831.4420773855         5.3496714165         6.7331051867
  4  82         4.6985058695       119.6545905153      3831.4884532594         5.3496630332         6.7331040466
  4  83         4.6984253140       119.6525724993      3831.4407348395         5.3496695175         6.7331049284
  4  84         4.6985238212       119.6540116683      3831.4475815586         5.3496438010         6.7331014310
  4  85         4.5896748144       117.8881016986      3825.2319208519         5.3791421976         6.7371132129
  4  86         4.5895206482       117.8875621313      3825.2705808676         5.3792002107         6.7371211027
  4  87         4.5894411096       117.8864561135      3825.2562328930         5.3792183515         6.7371235699
  4  88         4.5896946755       117.8876932346      3825.2106234573         5.3791291889         6.7371114438
  5   5         9.4156918244       209.6368516653      5104.5619425148         4.8261304372         6.6619036135
  5   6         9.4158742132       209.6403626754      5104.6245346243         4.8261218269         6.6619024425
  5   7         9.4158642692       209.6406814402      5104.6373609049         4.8261261042         6.6619030242
  5   8         9.4156945533       209.6374008797      5104.5794098190         4.8261341887         6.6619041237
  5   9         9.7923190540       219.2451554515      5310.7222018656         4.8263970326         6.6619398705
  5  10         9.7924387933       219.2474848034      5310.7685484075         4.8263928038         6.6619392954
  5  11         9.7924165602       219.2463741911      5310.7266354515         4.8263860203         6.6619383728
  5  12         9.7923624159       219.2459326223      5310.7395896176         4.8263956498         6.6619396824
  5  13         9.8413655605       219.2263092104      5272.8959111879         4.8117351245         6.6599458510
  5  14         9.8411371872       219.2224126383      5272.8292133444         4.8117478185         6.6599475774
  5  15         9.8412208979       219.2233833381      5272.8395849462         4.8117399772         6.6599465110
  5  16         9.8413078161       219.2262832584      5272.9142324499         4.8117463293         6.6599473749
  5  17        10.9798904302       282.1902926383      7860.1627120416         5.1732916301         6.7091175358
  5  18        10.9800347543       282.1920566568      7860.1486156334         5.1732722909         6.7091149056
  5  19        10.9800410331       282.1928388217      7860.1711432667         5.1732752215         6.7091153042
  5  20        10.9798466557       282.1889877364      7860.1224468879         5.1732901635         6.7091173363
  5  21        11.1519559211       282.8015939223      7838.4721936605         5.1498150864         6.7059247258
  5  22        11.1522601749       282.8084586331      7838.5941580525         5.1497998853         6.7059226585
  5  23        11.1522872085       282.8088357839      7838.6142431005         5.1498001075         6.7059226887
  5  24        11.1519690050       282.8019535180      7838.4803017658         5.1498149012         6.7059247006
  5  25        11.9492360429       375.3992696913     13039.6093151619         5.7487360652         6.7873779789
  5  26        11.9495079339       375.4007477441     13039.5023074643         5.7486917307         6.7873719494
  5  27        11.9495000675       375.4012321926     13039.5243690733         5.7486950711         6.7873724037
  5  28        11.9492227188       375.3986492626     13039.5834193113         5.7487348185         6.7873778094
  5  29        11.6534639139       367.4851781738     12855.0279126843         5.7643698905         6.7895041792
  5  30        11.6535123168       367.4913598204     12855.3092274941         5.7643952515         6.7895076283
  5  31        11.6534128239       367.4895309361     12855.2803317199         5.7644042951         6.7895088582
  5  32        11.6536553523       367.4896075035     12855.1263253179         5.7643572488         6.7895024599
  5  33         4.7046183428       114.9746123141      3653.2289656471         5.2864155215         6.7245023850
  5  34         4.7050468384       114.9805362222      3653.2842125339         5.2863153248         6.7244887583
  5  35         4.7050170549       114.9791493111      3653.2443852348         5.2863096812         6.7244879907
  5  36         4.7047067774       114.9770776795      3653.2816696027         5.2864091870         6.7245015235
  5  37        11.5455813209       364.0699390435     12787.3443310067         5.7702724389         6.7903069258
  5  38        11.5457067310       364.0718685844     12787.3869878037         5.7702616751         6.7903054619
  5  39        11.5456696350       364.0724228923     12787.4236178338         5.7702703543         6.7903066423
  5  40        11.5456013111       364.0703299515     12787.3690115990         5.7702727648         6.7903069701
  5  41         4.6864960407       113.4311773313      3606.6599735398         5.2751821430         6.7229746455
  5  42         4.6864990522       113.4309875254      3606.6367247431         5.2751726473         6.7229733541
  5  43         4.6865254838       113.4319346819      3606.6652871572         5.2751754652         6.7229737373
  5  44         4.6864943771       113.4311424315      3606.6596787267         5.2751825140         6.7229746960
  5  45        12.2939233377       383.1317509888     13087.0072333372         5.7129914796         6.7825167153
  5  46        12.2940830313       383.1360229879     13087.1217231731         5.7129854098         6.7825158898
  5  47        12.2940129215       383.1338314967     13087.0535094820         5.7129861217         6.7825159866
  5  48        12.2939682252       383.1326514013     13087.0362119572         5.7129894528         6.7825164397
  5  49         4.6962582170       114.5293278329      3648.8977343291         5.2874780224         6.7246468851
  5  50         4.6962988674       114.5307992581      3648.9345491082         5.2874795082         6.7246470872
  5  51         4.6962557964       114.5297185533      3648.9277870811         5.2874896436         6.7246484656
  5  52         4.6962412588       114.5289576901      3648.8894950194         5.2874798459         6.7246471331
  5  53         4.6802240290       114.4637281567      3660.6210859406         5.2963014695         6.7258468739
  5  54         4.6803443700       114.4654247430      3660.6301211772         5.2962706061         6.7258426765
  5  55         4.6803285296       114.4653397680      3660.6290327941         5.2962745637         6.7258432147
  5  56         4.6802113361       114.4643527623      3660.6366522184         5.2963101365         6.7258480526
  5  57        11.5336061434       361.2780199184     12675.3855700842         5.7592420462         6.7888067924
  5  58        11.5335563086       361.2766632899     12675.3879125396         5.7592486252         6.7888076871
  5  59        11.5335757235       361.2766113853     12675.3476053117         5.7592415901         6.7888067303
  5  60        11.5336404048       361.2799448336     12675.4920285852         5.7592498812         6.7888078579
[...]
 82  85         2.5193154806        73.1152983016      2863.6749650744         5.8173203728         6.7967054448
 82  86         2.5193560725        73.1155214869      2863.6741826988         5.8172972498         6.7967023000
 82  87         2.5193213700        73.1148874566      2863.6532009496         5.8173063538         6.7967035382
 82  88         2.5193285843        73.1148689205      2863.6489354173         5.8173001595         6.7967026958
 83  83         2.5761497680        74.2001252061      2878.4640646711         5.7922771178         6.7932995621
 83  84         2.5761930289        74.2011934790      2878.4830978673         5.7922619889         6.7932975046
 83  85         2.5192734471        73.1141789188      2863.6440962402         5.8173291898         6.7967066439
 83  86         2.5193140378        73.1144020867      2863.6433134765         5.8173060669         6.7967034992
 83  87         2.5192793364        73.1137680808      2863.6223324695         5.8173151709         6.7967047373
 83  88         2.5192865504        73.1137495397      2863.6180668214         5.8173089766         6.7967038949
 84  84         2.5762362908        74.2022617722      2878.5021311251         5.7922468598         6.7932954470
 84  85         2.5193156814        73.1152308034      2863.6633750829         5.8173142168         6.7967046076
 84  86         2.5193562730        73.1154539804      2863.6625922869         5.8172910938         6.7967014628
 84  87         2.5193215708        73.1148199582      2863.6416109579         5.8173001978         6.7967027010
 84  88         2.5193287850        73.1148014192      2863.6373453016         5.8172940035         6.7967018585
 85  85         2.4636799366        72.0408079020      2848.3277494627         5.8421737039         6.8000854978
 85  86         2.4637195248        72.0410317236      2848.3272497938         5.8421506890         6.8000823678
 85  87         2.4636856950        72.0404073652      2848.3063440040         5.8421597500         6.8000836001
 85  88         2.4636927111        72.0403896481      2848.3021736392         5.8421535898         6.8000827623
 86  86         2.4637591140        72.0412555462      2848.3267505208         5.8421276743         6.8000792378
 86  87         2.4637252833        72.0406311784      2848.3058442898         5.8421367352         6.8000804701
 86  88         2.4637322996        72.0406134628      2848.3016740603         5.8421305750         6.8000796323
 87  87         2.4636914534        72.0400068263      2848.2849386749         5.8421457961         6.8000817023
 87  88         2.4636984695        72.0399891075      2848.2807683181         5.8421396359         6.8000808646
 88  88         2.4637054857        72.0399713896      2848.2765980159         5.8421334757         6.8000800268
 
 TIME (energy sum):     1426.2
 TIME (final):     1426.2

!    total energy              =   -1384.25520065 Ry
     Harris-Foulkes estimate   =   -1384.25520066 Ry
     estimated scf accuracy    <          8.1E-10 Ry

     total all-electron energy =     -1384.255201 Ry

     The total energy is the sum of the following terms:

     one-electron contribution =    -709.42307783 Ry
     hartree contribution      =     466.07719869 Ry
     xc contribution           =    -267.59381008 Ry
     ewald contribution        =    -473.10588866 Ry
     Dispersion XDM Correction =      -0.44971794 Ry
     one-center paw contrib.   =    -399.75990483 Ry

     convergence has been achieved in  15 iterations

     Forces acting on atoms (Ry/au):

     atom    1 type  3   force =     0.00034875    0.00013988   -0.00020345
     atom    2 type  3   force =     0.00034234   -0.00014294    0.00013383
     atom    3 type  3   force =    -0.00034106    0.00014254    0.00013251
     atom    4 type  3   force =    -0.00034602   -0.00014077   -0.00020237
     atom    5 type  3   force =    -0.00013210   -0.00039905   -0.00013529
     atom    6 type  3   force =    -0.00007696    0.00040603    0.00008788
     atom    7 type  3   force =     0.00007676   -0.00040807    0.00008806
     atom    8 type  3   force =     0.00012813    0.00040052   -0.00013556
     atom    9 type  3   force =     0.00050645   -0.00004066   -0.00000829
     atom   10 type  3   force =     0.00051666    0.00006545    0.00003428
     atom   11 type  3   force =    -0.00051976   -0.00006765    0.00003606
     atom   12 type  3   force =    -0.00050392    0.00003823   -0.00000963
     atom   13 type  3   force =     0.00004839   -0.00001668   -0.00048266
     atom   14 type  3   force =     0.00002158    0.00004228    0.00055867
     atom   15 type  3   force =    -0.00002621   -0.00004493    0.00055563
     atom   16 type  3   force =    -0.00004276    0.00001693   -0.00048516
     atom   17 type  4   force =    -0.00012944   -0.00038435    0.00000131
     atom   18 type  4   force =    -0.00029575   -0.00006580    0.00012104
     atom   19 type  4   force =     0.00030278    0.00007444    0.00011856
     atom   20 type  4   force =     0.00012954    0.00038343    0.00000262
     atom   21 type  4   force =    -0.00028878    0.00013920    0.00019975
     atom   22 type  4   force =    -0.00012955    0.00016780   -0.00040688
     atom   23 type  4   force =     0.00014054   -0.00016185   -0.00040416
     atom   24 type  4   force =     0.00028185   -0.00013857    0.00019849
     atom   25 type  1   force =     0.00017380    0.00006279    0.00007226
     atom   26 type  1   force =     0.00022025   -0.00000158    0.00025578
     atom   27 type  1   force =    -0.00020767   -0.00001094    0.00025633
     atom   28 type  1   force =    -0.00017808   -0.00006224    0.00007307
     atom   29 type  1   force =    -0.00012478   -0.00022377    0.00033098
     atom   30 type  1   force =    -0.00041261    0.00006478   -0.00023114
     atom   31 type  1   force =     0.00041007   -0.00006638   -0.00023758
     atom   32 type  1   force =     0.00013131    0.00021524    0.00032567
     atom   33 type  2   force =    -0.00039482   -0.00014492    0.00057798
     atom   34 type  2   force =    -0.00024210    0.00020137   -0.00063305
     atom   35 type  2   force =     0.00025206   -0.00019832   -0.00063212
     atom   36 type  2   force =     0.00037697    0.00015074    0.00058228
     atom   37 type  1   force =    -0.00026677   -0.00009893   -0.00008592
     atom   38 type  1   force =    -0.00025197    0.00009009    0.00012735
     atom   39 type  1   force =     0.00024568   -0.00008743    0.00013075
     atom   40 type  1   force =     0.00027134    0.00010023   -0.00008034
     atom   41 type  2   force =    -0.00001038    0.00015630    0.00010200
     atom   42 type  2   force =    -0.00002322   -0.00016921   -0.00010911
     atom   43 type  2   force =     0.00001639    0.00016220   -0.00010463
     atom   44 type  2   force =     0.00001219   -0.00015529    0.00010367
     atom   45 type  1   force =     0.00019714   -0.00015564   -0.00011108
     atom   46 type  1   force =     0.00018136    0.00014097    0.00003791
     atom   47 type  1   force =    -0.00018474   -0.00014207    0.00003971
     atom   48 type  1   force =    -0.00019408    0.00015899   -0.00011005
     atom   49 type  2   force =    -0.00020865    0.00006685   -0.00016848
     atom   50 type  2   force =    -0.00020178   -0.00007793    0.00019228
     atom   51 type  2   force =     0.00019909    0.00007948    0.00019391
     atom   52 type  2   force =     0.00021027   -0.00006617   -0.00016883
     atom   53 type  2   force =     0.00009608    0.00045678   -0.00007487
     atom   54 type  2   force =     0.00007979   -0.00046278    0.00009449
     atom   55 type  2   force =    -0.00008643    0.00046234    0.00008955
     atom   56 type  2   force =    -0.00009172   -0.00045759   -0.00007825
     atom   57 type  1   force =    -0.00020484   -0.00025347    0.00019808
     atom   58 type  1   force =    -0.00016137    0.00024220   -0.00019340
     atom   59 type  1   force =     0.00016137   -0.00024191   -0.00019990
     atom   60 type  1   force =     0.00020882    0.00025498    0.00019777
     atom   61 type  2   force =     0.00009431    0.00008453    0.00038703
     atom   62 type  2   force =     0.00005862   -0.00007453   -0.00039840
     atom   63 type  2   force =    -0.00007166    0.00007812   -0.00039556
     atom   64 type  2   force =    -0.00008723   -0.00008386    0.00038650
     atom   65 type  1   force =    -0.00003165   -0.00025847   -0.00022767
     atom   66 type  1   force =    -0.00004801    0.00024680    0.00016141
     atom   67 type  1   force =     0.00003547   -0.00024244    0.00016272
     atom   68 type  1   force =     0.00003840    0.00026309   -0.00022499
     atom   69 type  2   force =     0.00015091   -0.00055723    0.00025337
     atom   70 type  2   force =     0.00015917    0.00057492   -0.00024191
     atom   71 type  2   force =    -0.00016474   -0.00057936   -0.00023715
     atom   72 type  2   force =    -0.00014504    0.00055200    0.00025744
     atom   73 type  2   force =     0.00024166   -0.00040891   -0.00038062
     atom   74 type  2   force =     0.00024858    0.00037667    0.00034568
     atom   75 type  2   force =    -0.00024923   -0.00037693    0.00034578
     atom   76 type  2   force =    -0.00024111    0.00040880   -0.00038029
     atom   77 type  2   force =     0.00027070   -0.00050394    0.00018761
     atom   78 type  2   force =     0.00027141    0.00051674   -0.00020511
     atom   79 type  2   force =    -0.00027067   -0.00051617   -0.00020636
     atom   80 type  2   force =    -0.00027086    0.00050329    0.00018788
     atom   81 type  2   force =    -0.00021817   -0.00003446   -0.00012097
     atom   82 type  2   force =    -0.00020652    0.00003952    0.00010956
     atom   83 type  2   force =     0.00020668   -0.00003928    0.00010889
     atom   84 type  2   force =     0.00021819    0.00003445   -0.00012058
     atom   85 type  2   force =     0.00015539   -0.00005847   -0.00015849
     atom   86 type  2   force =     0.00019221    0.00023496    0.00000186
     atom   87 type  2   force =    -0.00019126   -0.00023338    0.00000236
     atom   88 type  2   force =    -0.00015496    0.00005837   -0.00015828

     Total force =     0.004073     Total SCF correction =     0.000047

     Total XDM Dispersion Force =     0.002929

     XDM Dispersion forces acting on atoms:
     atom    1 type  3   force =     0.00012309    0.00020623   -0.00025083
     atom    2 type  3   force =     0.00012318   -0.00020625    0.00025086
     atom    3 type  3   force =    -0.00012318    0.00020624    0.00025086
     atom    4 type  3   force =    -0.00012308   -0.00020623   -0.00025084
     atom    5 type  3   force =     0.00009815   -0.00006572    0.00015705
     atom    6 type  3   force =     0.00009818    0.00006572   -0.00015712
     atom    7 type  3   force =    -0.00009817   -0.00006571   -0.00015712
     atom    8 type  3   force =    -0.00009816    0.00006572    0.00015704
     atom    9 type  3   force =     0.00026692   -0.00010339   -0.00025121
     atom   10 type  3   force =     0.00026693    0.00010347    0.00025124
     atom   11 type  3   force =    -0.00026692   -0.00010347    0.00025124
     atom   12 type  3   force =    -0.00026693    0.00010339   -0.00025121
     atom   13 type  3   force =    -0.00012990   -0.00016224   -0.00004789
     atom   14 type  3   force =    -0.00012992    0.00016214    0.00004782
     atom   15 type  3   force =     0.00012992   -0.00016214    0.00004783
     atom   16 type  3   force =     0.00012989    0.00016224   -0.00004789
     atom   17 type  4   force =    -0.00008838    0.00002875   -0.00003368
     atom   18 type  4   force =    -0.00008830   -0.00002867    0.00003373
     atom   19 type  4   force =     0.00008830    0.00002866    0.00003371
     atom   20 type  4   force =     0.00008838   -0.00002874   -0.00003370
     atom   21 type  4   force =     0.00011328   -0.00021067    0.00024634
     atom   22 type  4   force =     0.00011353    0.00021047   -0.00024627
     atom   23 type  4   force =    -0.00011352   -0.00021047   -0.00024628
     atom   24 type  4   force =    -0.00011328    0.00021067    0.00024633
     atom   25 type  1   force =     0.00006804   -0.00003663   -0.00024209
     atom   26 type  1   force =     0.00006829    0.00003651    0.00024214
     atom   27 type  1   force =    -0.00006827   -0.00003652    0.00024213
     atom   28 type  1   force =    -0.00006804    0.00003663   -0.00024211
     atom   29 type  1   force =     0.00037751   -0.00038397    0.00031360
     atom   30 type  1   force =     0.00037774    0.00038373   -0.00031362
     atom   31 type  1   force =    -0.00037773   -0.00038373   -0.00031363
     atom   32 type  1   force =    -0.00037753    0.00038397    0.00031359
     atom   33 type  2   force =     0.00001207   -0.00002896   -0.00000032
     atom   34 type  2   force =     0.00001209    0.00002886    0.00000032
     atom   35 type  2   force =    -0.00001209   -0.00002886    0.00000031
     atom   36 type  2   force =    -0.00001207    0.00002896   -0.00000033
     atom   37 type  1   force =    -0.00012430    0.00032206    0.00035760
     atom   38 type  1   force =    -0.00012442   -0.00032222   -0.00035759
     atom   39 type  1   force =     0.00012442    0.00032221   -0.00035759
     atom   40 type  1   force =     0.00012430   -0.00032207    0.00035759
     atom   41 type  2   force =    -0.00005518    0.00011764    0.00017969
     atom   42 type  2   force =    -0.00005517   -0.00011767   -0.00017967
     atom   43 type  2   force =     0.00005517    0.00011767   -0.00017967
     atom   44 type  2   force =     0.00005518   -0.00011764    0.00017969
     atom   45 type  1   force =    -0.00027097   -0.00000418   -0.00007193
     atom   46 type  1   force =    -0.00027107    0.00000425    0.00007202
     atom   47 type  1   force =     0.00027106   -0.00000424    0.00007202
     atom   48 type  1   force =     0.00027098    0.00000418   -0.00007193
     atom   49 type  2   force =    -0.00012859    0.00001635    0.00010047
     atom   50 type  2   force =    -0.00012863   -0.00001630   -0.00010045
     atom   51 type  2   force =     0.00012863    0.00001630   -0.00010046
     atom   52 type  2   force =     0.00012859   -0.00001635    0.00010047
     atom   53 type  2   force =    -0.00016926   -0.00005313   -0.00007213
     atom   54 type  2   force =    -0.00016926    0.00005315    0.00007215
     atom   55 type  2   force =     0.00016926   -0.00005314    0.00007215
     atom   56 type  2   force =     0.00016926    0.00005313   -0.00007213
     atom   57 type  1   force =     0.00051907    0.00011603   -0.00033874
     atom   58 type  1   force =     0.00051919   -0.00011642    0.00033873
     atom   59 type  1   force =    -0.00051920    0.00011642    0.00033873
     atom   60 type  1   force =    -0.00051908   -0.00011603   -0.00033875
     atom   61 type  2   force =     0.00008037    0.00012422   -0.00001593
     atom   62 type  2   force =     0.00008039   -0.00012429    0.00001587
     atom   63 type  2   force =    -0.00008038    0.00012429    0.00001587
     atom   64 type  2   force =    -0.00008037   -0.00012422   -0.00001593
     atom   65 type  1   force =     0.00024709   -0.00025927   -0.00031844
     atom   66 type  1   force =     0.00024691    0.00025895    0.00031835
     atom   67 type  1   force =    -0.00024691   -0.00025895    0.00031836
     atom   68 type  1   force =    -0.00024708    0.00025926   -0.00031844
     atom   69 type  2   force =     0.00014731   -0.00018088   -0.00013404
     atom   70 type  2   force =     0.00014737    0.00018089    0.00013404
     atom   71 type  2   force =    -0.00014736   -0.00018088    0.00013404
     atom   72 type  2   force =    -0.00014732    0.00018088   -0.00013404
     atom   73 type  2   force =    -0.00008680   -0.00008497   -0.00001449
     atom   74 type  2   force =    -0.00008683    0.00008494    0.00001447
     atom   75 type  2   force =     0.00008683   -0.00008494    0.00001447
     atom   76 type  2   force =     0.00008680    0.00008497   -0.00001449
     atom   77 type  2   force =    -0.00001373    0.00002561    0.00011127
     atom   78 type  2   force =    -0.00001373   -0.00002559   -0.00011126
     atom   79 type  2   force =     0.00001373    0.00002559   -0.00011126
     atom   80 type  2   force =     0.00001374   -0.00002561    0.00011126
     atom   81 type  2   force =     0.00011894    0.00000241   -0.00004047
     atom   82 type  2   force =     0.00011890   -0.00000235    0.00004048
     atom   83 type  2   force =    -0.00011890    0.00000235    0.00004049
     atom   84 type  2   force =    -0.00011894   -0.00000241   -0.00004047
     atom   85 type  2   force =     0.00000713    0.00000467   -0.00009337
     atom   86 type  2   force =     0.00000716   -0.00000463    0.00009338
     atom   87 type  2   force =    -0.00000716    0.00000462    0.00009338
     atom   88 type  2   force =    -0.00000713   -0.00000467   -0.00009338


     entering subroutine stress ...

          total   stress  (Ry/bohr**3)                   (kbar)     P=   -0.18
  -0.00000351   0.00000024   0.00000000         -0.52      0.04      0.00
   0.00000024  -0.00000011   0.00000001          0.04     -0.02      0.00
   0.00000000   0.00000001  -0.00000007          0.00      0.00     -0.01


     Writing output data file black_c.save
 
     init_run     :    406.49s CPU    407.96s WALL (       2 calls)
     electrons    :   9272.12s CPU   9337.07s WALL (       5 calls)
     update_pot   :    557.71s CPU    557.99s WALL (       3 calls)
     forces       :    703.99s CPU    704.90s WALL (       5 calls)
     stress       :   1286.20s CPU   1287.74s WALL (       5 calls)

     Called by init_run:
     wfcinit      :    123.68s CPU    124.83s WALL (       2 calls)
     potinit      :    112.29s CPU    112.46s WALL (       2 calls)

     Called by electrons:
     c_bands      :   4277.62s CPU   4329.73s WALL (      58 calls)
     sum_band     :   2755.74s CPU   2763.62s WALL (      58 calls)
     v_of_rho     :    145.03s CPU    148.13s WALL (      60 calls)
     newd         :    520.71s CPU    521.38s WALL (      60 calls)
     mix_rho      :     62.16s CPU     62.33s WALL (      58 calls)

     Called by c_bands:
     init_us_2    :     23.64s CPU     23.70s WALL (     512 calls)
     cegterg      :   4232.09s CPU   4274.71s WALL (     232 calls)

     Called by *egterg:
     h_psi        :   3082.54s CPU   3085.79s WALL (     800 calls)
     s_psi        :    302.84s CPU    302.90s WALL (     800 calls)
     g_psi        :     13.91s CPU     13.90s WALL (     560 calls)
     cdiaghg      :     58.50s CPU     58.52s WALL (     768 calls)

     Called by h_psi:
     add_vuspsi   :    303.72s CPU    303.78s WALL (     800 calls)

     General routines
     calbec       :    441.42s CPU    441.56s WALL (    1072 calls)
     fft          :    111.66s CPU    112.88s WALL (    1876 calls)
     ffts         :      5.02s CPU      5.07s WALL (     236 calls)
     fftw         :   3642.70s CPU   3644.66s WALL (  302030 calls)
     interpolate  :     21.71s CPU     21.89s WALL (     236 calls)
     davcio       :      0.03s CPU     15.47s WALL (     744 calls)
 
     Parallel routines
     fft_scatter  :    805.05s CPU    810.68s WALL (  304142 calls)
 
     PAW routines
     PAW_pot      :    131.57s CPU    131.59s WALL (      60 calls)
     PAW_ddot     :     39.73s CPU     39.74s WALL (    1076 calls)
 
     PWSCF        :     3h24m CPU        3h25m WALL

 
   This run was terminated on:  22:10:34  20Apr2012            

=------------------------------------------------------------------------------=
   JOB DONE.
=------------------------------------------------------------------------------=
