268
exttf_tube65_631gs.log	Energy: -7105111.3774134
C         -8.31180       -4.06184        0.15423
C         -8.01341       -4.47671       -1.12296
C         -8.85590        1.89974       -3.19940
C         -8.84965        2.31157       -1.88370
C         -7.57786       -3.57750       -3.91739
C         -7.49143       -2.50613       -4.78644
C         -8.56778        1.56996        0.98334
C         -8.32869        0.53833        1.87587
C         -7.55211        0.44883       -4.72541
C         -7.61613        1.54718       -3.83836
C         -7.65079       -2.32428        1.80244
C         -7.31175       -3.39320        0.94515
C         -7.61221        2.45470       -1.16462
C         -7.48766        2.15790        0.24697
C         -6.69728       -4.28999       -1.67004
C         -6.48545       -3.89282       -3.04715
C         -7.00148        0.06630        2.09520
C         -6.67745       -1.36025        2.14872
C         -6.30365       -1.71368       -4.85492
C         -6.33290       -0.24629       -4.90215
C         -5.94172       -3.57791        0.57044
C         -5.62914       -4.06857       -0.74328
C         -6.40364        2.06130       -3.27111
C         -6.41342        2.58029       -1.92933
C         -5.20307       -3.40072       -3.42891
C         -5.10524       -2.32134       -4.37476
C         -6.17490        1.99647        0.79116
C         -5.93674        0.96106        1.76306
C         -5.11264        0.46177       -4.61938
C         -5.15168        1.67643       -3.85885
C         -5.29286       -1.73535        2.05463
C         -4.92567       -2.90125        1.31029
C         -5.14588        2.80405       -1.28881
C         -5.03285        2.55686        0.10860
C         -4.28958       -3.93058       -1.22031
C         -4.06145       -3.66643       -2.59888
C         -4.57765        0.61342        2.08354
C         -4.25904       -0.76578        2.31130
C         -3.84886       -1.64085       -4.52074
C         -3.84891       -0.22138       -4.71195
C         -3.55050       -3.12520        0.97903
C         -3.22976       -3.68938       -0.29578
C         -3.92950        2.23507       -3.35673
C         -3.93737        2.86982       -2.06894
C         -2.76386       -3.26574       -3.02979
C         -2.65011       -2.26388       -4.05704
C         -3.73335        2.47263        0.70070
C         -3.51370        1.51342        1.75489
C         -2.63289        0.50477       -4.52949
C         -2.67434        1.79498       -3.89157
C         -2.89002       -1.16884        2.30884
C         -2.52922       -2.41405        1.67951
C         -2.68742        3.13776       -1.42761
C         -2.59380        2.97933       -0.00646
C         -1.88768       -3.63957       -0.76903
C         -1.64512       -3.47980       -2.17082
C         -2.17246        1.17818        2.11604
C         -1.86153       -0.17929        2.46148
C         -1.39741       -1.60547       -4.24548
C         -1.38254       -0.20186       -4.54195
C         -1.15929       -2.66435        1.36401
C         -0.83049       -3.33835        0.14568
C         -1.45278        2.37416       -3.41597
C         -1.46440        3.11784       -2.19235
C         -0.33576       -3.11339       -2.61266
C         -0.20222       -2.19851       -3.70898
C         -1.29740        2.92416        0.60248
C         -1.09368        2.04256        1.71644
C         -0.15483        0.52505       -4.40626
C         -0.19084        1.86667       -3.89005
C         -0.49074       -0.59261        2.50128
C         -0.13478       -1.89311        2.00532
C         -0.21908        3.42588       -1.55600
C         -0.14899        3.38756       -0.12240
C          0.52043       -3.34218       -0.31561
C          0.77668       -3.28114       -1.72790
C          0.23616        1.72745        2.12459
C          0.53885        0.39642        2.58532
C          1.05881       -1.56947       -3.93851
C          1.08669       -0.19032       -4.35105
C          1.23413       -2.18965        1.73605
C          1.57026       -2.98076        0.58448
C          1.02802        2.47064       -3.45070
C          1.01181        3.31476       -2.28990
C          2.08975       -2.95525       -2.18223
C          2.23942       -2.12254       -3.34032
C          1.13153        3.35601        0.50133
C          1.31825        2.55468        1.68588
C          2.31750        0.53390       -4.25713
C          2.28774        1.90876       -3.85751
C          1.90367       -0.02140        2.67923
C          2.25743       -1.36064        2.30464
C          2.25979        3.63928       -1.65983
C          2.31067        3.74475       -0.23218
C          2.92855       -3.02195        0.13440
C          3.19752       -3.06465       -1.27341
C          2.64742        2.26323        2.14862
C          2.94034        0.96957        2.70124
C          3.51310       -1.52096       -3.60287
C          3.55682       -0.18400       -4.12373
C          3.63271       -1.68632        2.08079
C          3.97660       -2.58918        1.01320
C          3.50880        2.54008       -3.45840
C          3.48352        3.47796       -2.37202
C          4.51804       -2.78383       -1.73974
C          4.68343       -2.03950       -2.96152
C          3.57863        3.72716        0.42116
C          3.74153        3.04339        1.66921
C          4.78949        0.53675       -4.07155
C          4.76362        1.94104       -3.78548
C          4.30309        0.55712        2.83414
C          4.65169       -0.81111        2.56866
C          4.71061        3.87021       -1.75478
C          4.74824        4.05945       -0.33556
C          5.33483       -2.66773        0.57671
C          5.61268       -2.81894       -0.82002
C          5.06595        2.78549        2.14397
C          5.34579        1.54010        2.78063
C          5.95868       -1.46185       -3.24780
C          6.01766       -0.17419       -3.85702
C          6.03206       -1.15339        2.37492
C          6.38722       -2.15549        1.41446
C          5.98524        2.59566       -3.41161
C          5.95921        3.63945       -2.43054
C          6.95120       -2.58391       -1.29061
C          7.13373       -1.93609       -2.56373
C          6.02541        4.14050        0.32018
C          6.17762        3.53732        1.62043
C          7.26314        0.53652       -3.85081
C          7.23742        1.96095       -3.68196
C          6.71334        1.14343        2.95735
C          7.04913       -0.24504        2.80894
C          7.19075        4.11694       -1.85881
C          7.19578        4.47019       -0.43405
C          7.76433       -2.32013        1.02762
C          8.04956       -2.63697       -0.37708
C          7.48959        3.33763        2.15401
C          7.76009        2.11788        2.89111
C          8.41912       -1.42226       -2.91524
C          8.49026       -0.16238       -3.62570
C          8.42382       -0.62753        2.67466
C          8.75409       -1.72311        1.84470
C          8.45088        2.65444       -3.36581
C          8.39731        3.78248       -2.51802
C          9.35728       -2.51957       -0.94444
C          9.53914       -1.94254       -2.18870
C          8.40383        4.65780        0.30950
C          8.54416        4.12086        1.57756
C          9.70816        0.59581       -3.71944
C          9.69228        1.96876       -3.61568
C          9.09885        1.66625        3.16289
C          9.42162        0.32882        3.08158
C         -0.64177        7.73518       -2.91479
C         -0.19841        7.60208       -1.60362
C         -0.96386        7.04085       -0.54127
C         -2.35480        6.75791       -0.82968
C         -2.75651        6.91329       -2.18544
C         -1.94173        7.33632       -3.22249
C         -0.34658        6.77494        0.78195
C         -3.31247        6.33731        0.23409
C         -2.64805        5.90418        1.50477
C         -1.22895        6.07636        1.73937
C         -0.66330        5.40444        2.85669
C         -1.39790        4.64224        3.76266
C         -2.78907        4.56476        3.59439
C         -3.36362        5.16738        2.48807
H          0.02838        8.14106       -3.67516
H          0.79383        7.97373       -1.39350
H         -3.76577        6.68636       -2.47182
H         -2.34366        7.39621       -4.23584
C          3.59741        6.89460        1.80188
C          3.67662        6.79873        0.45673
H          4.43744        6.89472        2.49675
H          4.58385        6.62899       -0.12091
C         -7.24005        5.34459        0.22311
C         -7.05966        5.58682       -1.09905
H         -7.93583        4.60403        0.61343
H         -7.59114        5.06318       -1.91520
C         -4.70434        6.21572        0.01589
C          1.05976        6.83488        0.96571
S         -5.98110        5.93930        1.28132
S         -5.58819        6.40805       -1.55594
S          1.98338        6.96157        2.49959
S          2.15678        6.76497       -0.40292
C          3.38192       -6.24737       -2.64772
C          3.31328       -6.25538       -1.26157
C          2.13489       -6.30497       -0.47493
C          0.88936       -6.44759       -1.21134
C          1.01335       -6.49507       -2.62267
C          2.18811       -6.36332       -3.35151
C          2.20618       -6.18780        1.01744
C         -0.44862       -6.52813       -0.54735
C         -0.39061       -6.15882        0.90069
C          0.85562       -5.97301        1.62795
C          0.73807       -5.52864        2.97102
C         -0.42706       -5.17990        3.63326
C         -1.62974       -5.38644        2.94001
C         -1.57478       -5.90099        1.64588
H          4.35062       -6.18340       -3.14525
H          4.25829       -6.27533       -0.76228
H          0.14321       -6.66449       -3.21972
H          2.15607       -6.39169       -4.44119
C          5.35823       -5.94191        3.67346
C          6.04106       -6.17067        2.54106
C         -4.27783       -6.99416       -1.98761
C         -3.59759       -7.14817       -3.13107
H         -5.34182       -6.82588       -1.90271
H         -4.02650       -7.22574       -4.12762
C         -1.66702       -6.72099       -1.25838
C          3.42934       -6.08562        1.73852
S         -3.32371       -6.79047       -0.53975
S         -1.85689       -7.06013       -3.03534
S          3.62350       -5.82283        3.53695
S          5.11387       -6.31179        1.07163
C         -0.40683       -4.71040        5.07575
H          0.61830       -4.53243        5.43416
H         -0.91246       -5.43831        5.72642
C         -0.70910        3.89000        4.85735
H          0.35459        3.74559        4.62049
H         -0.78079        4.38307        5.84192
O         -1.07014       -3.40640        5.19576
O         -1.38038        2.58300        4.98144
C         -0.93140        1.73985        5.95101
C         -2.04977       -3.21515        6.12891
O         -2.57560       -4.10727        6.78040
O          0.07915        1.89997        6.61398
C         -2.43541       -1.76554        6.21575
C         -1.53416       -0.72786        5.90029
C         -3.70780       -1.47177        6.75689
C         -1.91250        0.60889        6.15399
H         -0.55275       -0.95856        5.48499
C         -4.08971       -0.13634        6.96242
H         -4.35939       -2.30112        7.02265
C         -3.18024        0.90439        6.67273
H         -3.48522        1.93638        6.85558
O         -5.30406        0.25997        7.45418
C         -6.29003       -0.75634        7.66599
H         -7.20581       -0.22521        7.95605
H         -6.46528       -1.33563        6.74231
H         -5.98338       -1.44510        8.47286
H         -9.34385       -4.08626        0.51043
H         -8.81886       -4.82663       -1.76823
H         -9.79896        1.66637       -3.69827
H         -9.79867        2.40830       -1.35318
H         -8.54281       -4.06363       -3.77829
H         -8.39245       -2.17905       -5.30517
H         -9.59960        1.80035        0.71413
H         -9.17791       -0.01476        2.28175
H         -8.49388       -0.03178       -4.98883
H         -8.71049       -2.09298        1.91924
H          9.80918       -1.87476        1.61488
H          9.34345        4.17677       -2.14698
H         10.23409       -2.74286       -0.33497
H         10.55304       -1.72961       -2.52653
H          9.27840        5.09245       -0.17697
H          9.52364        4.14880        2.05580
H         10.66525        0.07397       -3.73838
H         10.62918        2.52537       -3.55286
H          9.89460        2.39908        3.30337
H         10.46366        0.01091        3.15701
H          5.78369       -5.80936        4.66735
H          7.12275       -6.25432        2.44857
H          1.62273       -5.47954        3.56551
H         -2.53735       -6.09212        1.19903
H         -2.59260       -5.16197        3.39923
H         -4.41570        4.96702        2.35190
H          0.42025        5.38291        2.96462
H         -3.40725        3.96154        4.26385
