
     Program PWSCF v.4.3.2      starts on 16Apr2013 at 19: 3: 0 

     This program is part of the open-source Quantum ESPRESSO suite
     for quantum simulation of materials; please cite
         "P. Giannozzi et al., J. Phys.:Condens. Matter 21 395502 (2009);
          URL http://www.quantum-espresso.org", 
     in publications or presentations arising from this work. More details at
     http://www.quantum-espresso.org/wiki/index.php/Citing_Quantum-ESPRESSO

     Current dimensions of program PWSCF are:
     Max number of different atomic species (ntypx) = 10
     Max number of k-points (npk) =  40000
     Max angular momentum in pseudopotentials (lmaxx) =  3
     Waiting for input...
     Reading input from stdin
               file h.UPF: wavefunction(s)  1S renormalized
               file c.UPF: wavefunction(s)  2P renormalized
               file n.UPF: wavefunction(s)  2P renormalized
               file o.UPF: wavefunction(s)  2P renormalized
 
     G-vector sticks info
     --------------------
     sticks:   dense  smooth     PW     G-vecs:    dense   smooth      PW
     Sum       11839    4739   1259               493953   125041   17151
 

     Title: 
     crystal                                                                    


     bravais-lattice index     =            0
     lattice parameter (alat)  =       1.0000  a.u.
     unit-cell volume          =    3655.8509 (a.u.)^3
     number of atoms/cell      =           68
     number of atomic types    =            4
     number of electrons       =       184.00
     number of Kohn-Sham states=           92
     kinetic-energy cutoff     =      40.0000  Ry
     charge density cutoff     =     400.0000  Ry
     convergence threshold     =      1.0E-08
     mixing beta               =       0.7000
     number of iterations used =            8  plain     mixing
     Exchange-correlation      =  NOX  PW   PW86 PBC ( 0 417 4 0)
     EXX-fraction              =        0.00

     celldm(1)=   1.000000  celldm(2)=   0.000000  celldm(3)=   0.000000
     celldm(4)=   0.000000  celldm(5)=   0.000000  celldm(6)=   0.000000

     crystal axes: (cart. coord. in units of alat)
               a(1) = (  21.826337   0.000000   0.000000 )  
               a(2) = (   0.000000  17.045330   0.000000 )  
               a(3) = (   0.000000   0.000000   9.826576 )  

     reciprocal axes: (cart. coord. in units 2 pi/alat)
               b(1) = (  0.045816  0.000000  0.000000 )  
               b(2) = (  0.000000  0.058667  0.000000 )  
               b(3) = (  0.000000  0.000000  0.101765 )  


     PseudoPot. # 1 for  H read from file:
     ./h.UPF
     MD5 check sum: 465503140a8a8e79e3a70d3488897feb
     Pseudo is Projector augmented-wave, Zval =  1.0
     Generated using "atomic" code by A. Dal Corso  (Quantum ESPRESSO distribution)
     Shape of augmentation charge: PSQ
     Using radial grid of  929 points,  2 beta functions with: 
                l(1) =   0
                l(2) =   0
     Q(r) pseudized with 0 coefficients 


     PseudoPot. # 2 for  C read from file:
     ./c.UPF
     MD5 check sum: 59d3a4af416b94ce846c69cefa103580
     Pseudo is Projector augmented-wave + core cor, Zval =  4.0
     Generated using "atomic" code by A. Dal Corso  (Quantum ESPRESSO distribution)
     Shape of augmentation charge: BESSEL
     Using radial grid of 1073 points,  4 beta functions with: 
                l(1) =   0
                l(2) =   0
                l(3) =   1
                l(4) =   1
     Q(r) pseudized with 0 coefficients 


     PseudoPot. # 3 for  N read from file:
     ./n.UPF
     MD5 check sum: e0ff3f45b53a91ae99b5aaaaf06c1d8e
     Pseudo is Projector augmented-wave + core cor, Zval =  5.0
     Generated using "atomic" code by A. Dal Corso  (Quantum ESPRESSO distribution)
     Shape of augmentation charge: PSQ
     Using radial grid of 1085 points,  4 beta functions with: 
                l(1) =   0
                l(2) =   0
                l(3) =   1
                l(4) =   1
     Q(r) pseudized with 0 coefficients 


     PseudoPot. # 4 for  O read from file:
     ./o.UPF
     MD5 check sum: 7b405463629fa2aaa019ec68516902cf
     Pseudo is Projector augmented-wave + core cor, Zval =  6.0
     Generated using "atomic" code by A. Dal Corso  (Quantum ESPRESSO distribution)
     Shape of augmentation charge: BESSEL
     Using radial grid of 1095 points,  4 beta functions with: 
                l(1) =   0
                l(2) =   0
                l(3) =   1
                l(4) =   1
     Q(r) pseudized with 0 coefficients 


     atomic species   valence    mass     pseudopotential
        H              1.00     1.00794      H( 1.00)
        C              4.00    12.01070      C( 1.00)
        N              5.00    14.00670      N( 1.00)
        O              6.00    15.99940      O( 1.00)

      4 Sym.Ops. (no inversion)


   Cartesian axes

     site n.     atom                  positions (alat units)
         1           C   tau(   1) = (   0.6329638   4.5681484   1.2872814  )
         2           C   tau(   2) = (  11.5461322   3.9545165   8.5392944  )
         3           C   tau(   3) = (  21.1933731  13.0908132   3.6260065  )
         4           C   tau(   4) = (  10.2802046  12.4771814   6.2005694  )
         5           C   tau(   5) = (   1.2004485   5.0283723   4.0780290  )
         6           C   tau(   6) = (  12.1136169   3.4942926   5.7485469  )
         7           C   tau(   7) = (  20.6258883  13.5510371   0.8352590  )
         8           C   tau(   8) = (   9.7127199  12.0169575   8.9913169  )
         9           C   tau(   9) = (   3.3394295   6.9204039   4.4219592  )
        10           C   tau(  10) = (  14.2525980   1.6022610   5.4046167  )
        11           C   tau(  11) = (  18.4869073  15.4430687   0.4913288  )
        12           C   tau(  12) = (   7.5737389  10.1249259   9.3352471  )
        13           C   tau(  13) = (   5.6530212   5.1988256   4.0583758  )
        14           C   tau(  14) = (  16.5661897   3.3238393   5.7682000  )
        15           C   tau(  15) = (  16.1733156  13.7214904   0.8549121  )
        16           C   tau(  16) = (   5.2601472  11.8465042   8.9716638  )
        17           C   tau(  17) = (   4.9327521   2.7783887   5.4734028  )
        18           C   tau(  18) = (  15.8459205   5.7442761   4.3531731  )
        19           C   tau(  19) = (  16.8935847  11.3010536   9.2664611  )
        20           C   tau(  20) = (   5.9804163  14.2669410   0.5601148  )
        21           H   tau(  21) = (  21.4116364   5.6420041   5.2179118  )
        22           H   tau(  22) = (  10.4984680   2.8806607   4.6086641  )
        23           H   tau(  23) = (   0.4147004  14.1646690   9.5219520  )
        24           H   tau(  24) = (  11.3278688  11.4033256   0.3046239  )
        25           H   tau(  25) = (   3.3176032   7.6363077   6.3676212  )
        26           H   tau(  26) = (  14.2307716   0.8863571   3.4589547  )
        27           H   tau(  27) = (  18.5087336  16.1589726   8.3722427  )
        28           H   tau(  28) = (   7.5955652   9.4090220   1.4543332  )
        29           H   tau(  29) = (   3.2957769   8.3010756   2.8595336  )
        30           H   tau(  30) = (  14.2089453   0.2215893   6.9670423  )
        31           H   tau(  31) = (  18.5305600  16.8237404   2.0537544  )
        32           H   tau(  32) = (   7.6173916   8.7442541   7.7728215  )
        33           H   tau(  33) = (   7.2681702   6.2045000   4.8838082  )
        34           H   tau(  34) = (  18.1813386   2.3181648   4.9427677  )
        35           H   tau(  35) = (  14.5581667  14.7271649   0.0294797  )
        36           H   tau(  36) = (   3.6449983  10.8408297   9.7970962  )
        37           H   tau(  37) = (   5.8494583   4.4317857   2.1323670  )
        38           H   tau(  38) = (  16.7626267   4.0908791   7.6942089  )
        39           H   tau(  39) = (  15.9768786  12.9544506   2.7809210  )
        40           H   tau(  40) = (   5.0637101  12.6135440   7.0456549  )
        41           H   tau(  41) = (   5.3474525   3.0170234   7.4976774  )
        42           H   tau(  42) = (  16.2606209   5.5056415   2.3288985  )
        43           H   tau(  43) = (  16.4788843  11.5396882   7.2421864  )
        44           H   tau(  44) = (   5.5657159  14.0283064   2.5843895  )
        45           H   tau(  45) = (   5.8931109   1.1420371   4.6086641  )
        46           H   tau(  46) = (  16.8062794   7.3806278   5.2179118  )
        47           H   tau(  47) = (  15.9332259   9.6647020   0.3046239  )
        48           H   tau(  48) = (   5.0200575  15.9032926   9.5219520  )
        49           H   tau(  49) = (   1.4405382   2.1818022   6.8196437  )
        50           H   tau(  50) = (  12.3537066   6.3408627   3.0069322  )
        51           H   tau(  51) = (  20.3857986  10.7044671   7.9202202  )
        52           H   tau(  52) = (   9.4726302  14.8635275   1.9063557  )
        53           H   tau(  53) = (   1.8988913   1.1420371   3.8814975  )
        54           H   tau(  54) = (  12.8120597   7.3806278   5.9450784  )
        55           H   tau(  55) = (  19.9274455   9.6647020   1.0317905  )
        56           H   tau(  56) = (   9.0142771  15.9032926   8.7947854  )
        57           N   tau(  57) = (   2.1608073   2.5227088   5.1392992  )
        58           N   tau(  58) = (  13.0739758   5.9999561   4.6872767  )
        59           N   tau(  59) = (  19.6655295  11.0453737   9.6005646  )
        60           N   tau(  60) = (   8.7523611  14.5226209   0.2260112  )
        61           O   tau(  61) = (   1.2441012   2.4545275   0.3046239  )
        62           O   tau(  62) = (  12.1572696   6.0681374   9.5219520  )
        63           O   tau(  63) = (  20.5822356  10.9771923   4.6086641  )
        64           O   tau(  64) = (   9.6690672  14.5908022   5.2179118  )
        65           O   tau(  65) = (  21.3243311   6.2045000   9.8167493  )
        66           O   tau(  66) = (  10.4111627   2.3181648   0.0098266  )
        67           O   tau(  67) = (   0.5020057  14.7271649   4.9231145  )
        68           O   tau(  68) = (  11.4151742  10.8408297   4.9034614  )

     number of k points=     1
                       cart. coord. in units 2pi/alat
        k(    1) = (   0.0114541   0.0146668   0.0254412), wk =   2.0000000

     Dense  grid:   493953 G-vectors     FFT dimensions: ( 144, 120,  64)

     Smooth grid:   125041 G-vectors     FFT dimensions: (  90,  72,  40)

     Largest allocated arrays     est. size (Mb)     dimensions
        Kohn-Sham Wavefunctions        21.93 Mb     (  15622,   92)
        NL pseudopotentials            78.19 Mb     (  15622,  328)
        Each V/rho on FFT grid         16.88 Mb     (1105920)
        Each G-vector array             3.77 Mb     ( 493953)
        G-vector shells                 0.49 Mb     (  64678)
     Largest temporary arrays     est. size (Mb)     dimensions
        Auxiliary wavefunctions        87.72 Mb     (  15622,  368)
        Each subspace H/S matrix        2.07 Mb     ( 368, 368)
        Each <psi_i|beta_j> matrix      0.46 Mb     (    328,   92)
        Arrays for rho mixing         135.00 Mb     (1105920,   8)
