
     Program PWSCF v.4.3.2      starts on  9Jul2014 at  7:46:25 

     This program is part of the open-source Quantum ESPRESSO suite
     for quantum simulation of materials; please cite
         "P. Giannozzi et al., J. Phys.:Condens. Matter 21 395502 (2009);
          URL http://www.quantum-espresso.org", 
     in publications or presentations arising from this work. More details at
     http://www.quantum-espresso.org/wiki/index.php/Citing_Quantum-ESPRESSO

     Parallel version (MPI), running on     8 processors
     R & G space division:  proc/pool =    8

     Current dimensions of program PWSCF are:
     Max number of different atomic species (ntypx) = 10
     Max number of k-points (npk) =  40000
     Max angular momentum in pseudopotentials (lmaxx) =  3
     Waiting for input...
     Reading input from stdin
               file se.UPF: wavefunction(s)  4S renormalized
               file bi.UPF: wavefunction(s)  6S renormalized

     Subspace diagonalization in iterative solution of the eigenvalue problem:
     a serial algorithm will be used

     Found symmetry operation: I + (  0.3333 -0.3333  0.3333)
     This is a supercell, fractional translations are disabled
 
     Parallelization info
     --------------------
     sticks:   dense  smooth     PW     G-vecs:    dense   smooth      PW
     Min         316     127     37                88978    22499    3526
     Max         318     128     38                88993    22540    3533
     Sum        2531    1023    299               711867   180211   28229
 

     Title: 
     crystal                                                                    


     bravais-lattice index     =            0
     lattice parameter (alat)  =       1.0000  a.u.
     unit-cell volume          =    2867.5222 (a.u.)^3
     number of atoms/cell      =           15
     number of atomic types    =            2
     number of electrons       =       144.00
     number of Kohn-Sham states=           72
     kinetic-energy cutoff     =      60.0000  Ry
     charge density cutoff     =     600.0000  Ry
     convergence threshold     =      1.0E-08
     mixing beta               =       0.7000
     number of iterations used =            8  plain     mixing
     Exchange-correlation      =  SLA  PW   B86B PBC ( 1 418 4 0)
     EXX-fraction              =        0.00
     nstep                     =           50


     celldm(1)=   1.000000  celldm(2)=   0.000000  celldm(3)=   0.000000
     celldm(4)=   0.000000  celldm(5)=   0.000000  celldm(6)=   0.000000

     crystal axes: (cart. coord. in units of alat)
               a(1) = (   7.816870   0.014753  -0.013384 )  
               a(2) = (  -3.895661   6.776987   0.013386 )  
               a(3) = (  -0.062668   0.036188  54.071382 )  

     reciprocal axes: (cart. coord. in units 2 pi/alat)
               b(1) = (  0.127790  0.073458  0.000099 )  
               b(2) = ( -0.000278  0.147398 -0.000099 )  
               b(3) = (  0.000032 -0.000018  0.018494 )  


     PseudoPot. # 1 for Se read from file:
     ./se.UPF
     MD5 check sum: b3bf652973104d59ec74c383fb772ff0
     Pseudo is Projector augmented-wave + core cor, Zval =  6.0
     Generated using "atomic" code by A. Dal Corso  (Quantum ESPRESSO distribution)
     Shape of augmentation charge: PSQ
     Using radial grid of 1211 points,  4 beta functions with: 
                l(1) =   0
                l(2) =   0
                l(3) =   1
                l(4) =   1
     Q(r) pseudized with 0 coefficients 


     PseudoPot. # 2 for Bi read from file:
     ./bi.UPF
     MD5 check sum: 91f95544658e59ce26375ffdd66940af
     Pseudo is Projector augmented-wave + core cor, Zval = 15.0
     Generated using "atomic" code by A. Dal Corso  (Quantum ESPRESSO distribution)
     Shape of augmentation charge: PSQ
     Using radial grid of 1283 points,  6 beta functions with: 
                l(1) =   0
                l(2) =   0
                l(3) =   1
                l(4) =   1
                l(5) =   2
                l(6) =   2
     Q(r) pseudized with 0 coefficients 


     atomic species   valence    mass     pseudopotential
        se             6.00    78.96000     Se( 1.00)
        bi            15.00   208.98038     Bi( 1.00)

      2 Sym.Ops. (with inversion)


   Cartesian axes

     site n.     atom                  positions (alat units)
         1           se  tau(   1) = (   0.0000000   0.0000000   0.0000000  )
         2           se  tau(   2) = (  -0.0123747   4.5349723  18.0282668  )
         3           se  tau(   3) = (   3.8709161   2.2929552  36.0431159  )
         4           bi  tau(   4) = (   3.8906820   6.8093647  21.6598005  )
         5           bi  tau(   5) = (  -0.0428954   4.5525937  39.6880322  )
         6           bi  tau(   6) = (   3.9030577   2.2743918   3.6315406  )
         7           bi  tau(   7) = (  -0.0321406   0.0185627  32.4115823  )
         8           bi  tau(   8) = (  -0.0445163   4.5535356  50.4398422  )
         9           bi  tau(   9) = (   3.9014368   2.2753337  14.3833506  )
        10           se  tau(  10) = (  -3.9036251   6.7815886  11.4070570  )
        11           se  tau(  11) = (  -0.0203339   4.5395713  29.4219202  )
        12           se  tau(  12) = (   3.8629531   2.2975564  47.4367837  )
        13           se  tau(  13) = (   7.7621665   0.0463388  42.6643258  )
        14           se  tau(  14) = (  -0.0044117   4.5303711   6.6345991  )
        15           se  tau(  15) = (   3.8788753   2.2883562  24.6494626  )

     number of k points=    16
                       cart. coord. in units 2pi/alat
        k(    1) = (   0.0159469   0.0276025   0.0046235), wk =   0.1250000
        k(    2) = (   0.0159310   0.0276116  -0.0046235), wk =   0.1250000
        k(    3) = (   0.0158773   0.0644521   0.0045988), wk =   0.1250000
        k(    4) = (   0.0158614   0.0644612  -0.0046483), wk =   0.1250000
        k(    5) = (   0.0160861  -0.0460967   0.0046730), wk =   0.1250000
        k(    6) = (   0.0160702  -0.0460875  -0.0045740), wk =   0.1250000
        k(    7) = (   0.0160165  -0.0092471   0.0046483), wk =   0.1250000
        k(    8) = (   0.0160006  -0.0092379  -0.0045988), wk =   0.1250000
        k(    9) = (   0.0478944   0.0459670   0.0046483), wk =   0.1250000
        k(   10) = (   0.0478785   0.0459762  -0.0045988), wk =   0.1250000
        k(   11) = (   0.0478248   0.0828166   0.0046235), wk =   0.1250000
        k(   12) = (   0.0478089   0.0828258  -0.0046235), wk =   0.1250000
        k(   13) = (   0.0480335  -0.0277322   0.0046977), wk =   0.1250000
        k(   14) = (   0.0480177  -0.0277230  -0.0045493), wk =   0.1250000
        k(   15) = (   0.0479640   0.0091174   0.0046730), wk =   0.1250000
        k(   16) = (   0.0479481   0.0091266  -0.0045741), wk =   0.1250000

     Dense  grid:   711867 G-vectors     FFT dimensions: (  64,  64, 432)

     Smooth grid:   180211 G-vectors     FFT dimensions: (  40,  40, 270)

     Largest allocated arrays     est. size (Mb)     dimensions
        Kohn-Sham Wavefunctions         3.15 Mb     (   2866,   72)
        NL pseudopotentials             7.87 Mb     (   2866,  180)
        Each V/rho on FFT grid          3.38 Mb     ( 221184)
        Each G-vector array             0.68 Mb     (  88981)
        G-vector shells                 0.68 Mb     (  88981)
     Largest temporary arrays     est. size (Mb)     dimensions
        Auxiliary wavefunctions        12.59 Mb     (   2866,  288)
        Each subspace H/S matrix        1.27 Mb     ( 288, 288)
        Each <psi_i|beta_j> matrix      0.20 Mb     (    180,   72)
        Arrays for rho mixing          27.00 Mb     ( 221184,   8)

     Initial potential from superposition of free atoms

     starting charge  143.99453, renormalised to  144.00000
     Starting wfc are   90 atomic wfcs
     Checking if some PAW data can be deallocated... 

     total cpu time spent up to now is       59.6 secs

     per-process dynamical memory:    89.3 Mb

     Self-consistent Calculation

     iteration #  1     ecut=    60.00 Ry     beta=0.70
     Davidson diagonalization with overlap
     ethr =  1.00E-02,  avg # of iterations =  2.0

     total cpu time spent up to now is      189.7 secs

     total energy              =   -7167.32001599 Ry
     Harris-Foulkes estimate   =   -7167.97231011 Ry
     estimated scf accuracy    <     863.15465516 Ry

     iteration #  2     ecut=    60.00 Ry     beta=0.70
     Davidson diagonalization with overlap
     ethr =  1.00E-02,  avg # of iterations =  2.4

     total cpu time spent up to now is      323.8 secs

     total energy              =   -7161.91269053 Ry
     Harris-Foulkes estimate   =   -7168.67350047 Ry
     estimated scf accuracy    <      82.40887000 Ry

     iteration #  3     ecut=    60.00 Ry     beta=0.70
     Davidson diagonalization with overlap
     ethr =  1.00E-02,  avg # of iterations =  7.1

     total cpu time spent up to now is      511.9 secs

     total energy              =   -7139.03769162 Ry
     Harris-Foulkes estimate   =   -7202.27791682 Ry
     estimated scf accuracy    <     273.77131353 Ry

     iteration #  4     ecut=    60.00 Ry     beta=0.70
     Davidson diagonalization with overlap
     ethr =  1.00E-02,  avg # of iterations =  5.8

     total cpu time spent up to now is      700.8 secs

     total energy              =   -7167.52337341 Ry
     Harris-Foulkes estimate   =   -7168.50294565 Ry
     estimated scf accuracy    <       2.71287193 Ry

     iteration #  5     ecut=    60.00 Ry     beta=0.70
     Davidson diagonalization with overlap
     ethr =  1.88E-03,  avg # of iterations =  2.3

     total cpu time spent up to now is      837.9 secs

     total energy              =   -7167.82569517 Ry
     Harris-Foulkes estimate   =   -7167.84469277 Ry
     estimated scf accuracy    <       0.16176965 Ry

     iteration #  6     ecut=    60.00 Ry     beta=0.70
     Davidson diagonalization with overlap
     ethr =  1.12E-04,  avg # of iterations =  3.1

     total cpu time spent up to now is      974.4 secs

     total energy              =   -7167.83753566 Ry
     Harris-Foulkes estimate   =   -7167.84184440 Ry
     estimated scf accuracy    <       0.08719985 Ry

     iteration #  7     ecut=    60.00 Ry     beta=0.70
     Davidson diagonalization with overlap
     ethr =  6.06E-05,  avg # of iterations =  2.2

     total cpu time spent up to now is     1103.7 secs

     total energy              =   -7167.83948924 Ry
     Harris-Foulkes estimate   =   -7167.84090006 Ry
     estimated scf accuracy    <       0.06458364 Ry

     iteration #  8     ecut=    60.00 Ry     beta=0.70
     Davidson diagonalization with overlap
     ethr =  4.48E-05,  avg # of iterations =  1.0

     total cpu time spent up to now is     1229.7 secs

     total energy              =   -7167.83768376 Ry
     Harris-Foulkes estimate   =   -7167.84024519 Ry
     estimated scf accuracy    <       0.05446031 Ry

     iteration #  9     ecut=    60.00 Ry     beta=0.70
     Davidson diagonalization with overlap
     ethr =  3.78E-05,  avg # of iterations =  2.0

     total cpu time spent up to now is     1357.8 secs

     total energy              =   -7167.83451861 Ry
     Harris-Foulkes estimate   =   -7167.83867932 Ry
     estimated scf accuracy    <       0.03929269 Ry

     iteration # 10     ecut=    60.00 Ry     beta=0.70
     Davidson diagonalization with overlap
     ethr =  2.73E-05,  avg # of iterations =  2.6

     total cpu time spent up to now is     1490.2 secs

     total energy              =   -7167.83292975 Ry
     Harris-Foulkes estimate   =   -7167.83664688 Ry
     estimated scf accuracy    <       0.03378813 Ry

     iteration # 11     ecut=    60.00 Ry     beta=0.70
     Davidson diagonalization with overlap
     ethr =  2.35E-05,  avg # of iterations =  2.1

     total cpu time spent up to now is     1621.3 secs

     total energy              =   -7167.83375191 Ry
     Harris-Foulkes estimate   =   -7167.83466406 Ry
     estimated scf accuracy    <       0.02086156 Ry

     iteration # 12     ecut=    60.00 Ry     beta=0.70
     Davidson diagonalization with overlap
     ethr =  1.45E-05,  avg # of iterations =  1.5

     total cpu time spent up to now is     1748.0 secs

     total energy              =   -7167.83369568 Ry
     Harris-Foulkes estimate   =   -7167.83420580 Ry
     estimated scf accuracy    <       0.01010068 Ry

     iteration # 13     ecut=    60.00 Ry     beta=0.70
     Davidson diagonalization with overlap
     ethr =  7.01E-06,  avg # of iterations =  2.9

     total cpu time spent up to now is     1879.2 secs

     total energy              =   -7167.83405612 Ry
     Harris-Foulkes estimate   =   -7167.83418611 Ry
     estimated scf accuracy    <       0.00320267 Ry

     iteration # 14     ecut=    60.00 Ry     beta=0.70
     Davidson diagonalization with overlap
     ethr =  2.22E-06,  avg # of iterations =  2.8

     total cpu time spent up to now is     2011.0 secs

     total energy              =   -7167.83397314 Ry
     Harris-Foulkes estimate   =   -7167.83424436 Ry
     estimated scf accuracy    <       0.00255738 Ry

     iteration # 15     ecut=    60.00 Ry     beta=0.70
     Davidson diagonalization with overlap
     ethr =  1.78E-06,  avg # of iterations =  3.1

     total cpu time spent up to now is     2143.3 secs

     total energy              =   -7167.83402567 Ry
     Harris-Foulkes estimate   =   -7167.83410955 Ry
     estimated scf accuracy    <       0.00050875 Ry

     iteration # 16     ecut=    60.00 Ry     beta=0.70
     Davidson diagonalization with overlap
     ethr =  3.53E-07,  avg # of iterations =  3.2

     total cpu time spent up to now is     2281.9 secs

     total energy              =   -7167.83407095 Ry
     Harris-Foulkes estimate   =   -7167.83409578 Ry
     estimated scf accuracy    <       0.00017139 Ry

     iteration # 17     ecut=    60.00 Ry     beta=0.70
     Davidson diagonalization with overlap
     ethr =  1.19E-07,  avg # of iterations =  3.2

     total cpu time spent up to now is     2416.6 secs

     total energy              =   -7167.83408375 Ry
     Harris-Foulkes estimate   =   -7167.83408620 Ry
     estimated scf accuracy    <       0.00000801 Ry

     iteration # 18     ecut=    60.00 Ry     beta=0.70
     Davidson diagonalization with overlap
     ethr =  5.56E-09,  avg # of iterations =  4.0

     total cpu time spent up to now is     2565.5 secs

     total energy              =   -7167.83408545 Ry
     Harris-Foulkes estimate   =   -7167.83408664 Ry
     estimated scf accuracy    <       0.00000513 Ry

     iteration # 19     ecut=    60.00 Ry     beta=0.70
     Davidson diagonalization with overlap
     ethr =  3.56E-09,  avg # of iterations =  3.2

     total cpu time spent up to now is     2704.9 secs

     total energy              =   -7167.83408592 Ry
     Harris-Foulkes estimate   =   -7167.83408619 Ry
     estimated scf accuracy    <       0.00000132 Ry

     iteration # 20     ecut=    60.00 Ry     beta=0.70
     Davidson diagonalization with overlap
     ethr =  9.19E-10,  avg # of iterations =  3.4

     total cpu time spent up to now is     2844.5 secs

     total energy              =   -7167.83408601 Ry
     Harris-Foulkes estimate   =   -7167.83408613 Ry
     estimated scf accuracy    <       0.00000077 Ry

     iteration # 21     ecut=    60.00 Ry     beta=0.70
     Davidson diagonalization with overlap
     ethr =  5.35E-10,  avg # of iterations =  2.6

     total cpu time spent up to now is     2979.1 secs

     total energy              =   -7167.83408605 Ry
     Harris-Foulkes estimate   =   -7167.83408607 Ry
     estimated scf accuracy    <       0.00000007 Ry

     iteration # 22     ecut=    60.00 Ry     beta=0.70
     Davidson diagonalization with overlap
     ethr =  5.19E-11,  avg # of iterations =  4.0

     total cpu time spent up to now is     3124.7 secs

     total energy              =   -7167.83408606 Ry
     Harris-Foulkes estimate   =   -7167.83408607 Ry
     estimated scf accuracy    <       0.00000003 Ry

     iteration # 23     ecut=    60.00 Ry     beta=0.70
     Davidson diagonalization with overlap
     ethr =  1.96E-11,  avg # of iterations =  3.0

     total cpu time spent up to now is     3268.7 secs

     total energy              =   -7167.83408606 Ry
     Harris-Foulkes estimate   =   -7167.83408607 Ry
     estimated scf accuracy    <       0.00000001 Ry

     iteration # 24     ecut=    60.00 Ry     beta=0.70
     Davidson diagonalization with overlap
     ethr =  9.59E-12,  avg # of iterations =  3.0

     total cpu time spent up to now is     3406.4 secs

     End of self-consistent calculation

          k = 0.0159 0.0276 0.0046 ( 22523 PWs)   bands (ev):

   -15.3568 -15.3567 -15.3567 -15.3543 -15.3543 -15.3542 -15.3457 -15.3456
   -15.3456 -15.3451 -15.3451 -15.3451 -15.3407 -15.3407 -15.3406 -15.3403
   -15.3402 -15.3401 -15.3364 -15.3363 -15.3363 -15.3355 -15.3355 -15.3354
   -15.3324 -15.3324 -15.3323 -15.3287 -15.3287 -15.3287  -6.2174  -6.1677
    -6.0900  -5.8006  -5.6508  -5.5030  -4.8556  -4.7199  -4.6074  -2.3077
    -2.1988  -2.0699  -1.5309  -1.4399  -1.3717   3.9013   3.9930   4.1653
     4.2777   4.3348   4.3458   4.6097   4.7918   4.9185   5.1922   5.3293
     5.4561   5.4793   5.5009   5.6514   5.7122   5.8351   5.9163   6.1984
     6.5378   6.7845   6.8355   6.9811   6.9906   7.1514   7.1767   7.3014

          k = 0.0159 0.0276-0.0046 ( 22523 PWs)   bands (ev):

   -15.3568 -15.3567 -15.3567 -15.3543 -15.3543 -15.3542 -15.3457 -15.3456
   -15.3456 -15.3451 -15.3451 -15.3451 -15.3407 -15.3407 -15.3406 -15.3403
   -15.3402 -15.3401 -15.3364 -15.3363 -15.3363 -15.3355 -15.3355 -15.3354
   -15.3324 -15.3324 -15.3323 -15.3287 -15.3287 -15.3287  -6.2174  -6.1677
    -6.0900  -5.8006  -5.6508  -5.5030  -4.8556  -4.7199  -4.6074  -2.3077
    -2.1988  -2.0699  -1.5309  -1.4399  -1.3717   3.9013   3.9930   4.1653
     4.2777   4.3348   4.3458   4.6097   4.7918   4.9185   5.1922   5.3293
     5.4561   5.4793   5.5009   5.6514   5.7122   5.8351   5.9163   6.1984
     6.5378   6.7845   6.8355   6.9811   6.9906   7.1514   7.1767   7.3014

          k = 0.0159 0.0645 0.0046 ( 22492 PWs)   bands (ev):

   -15.3666 -15.3665 -15.3664 -15.3619 -15.3619 -15.3618 -15.3468 -15.3468
   -15.3467 -15.3436 -15.3435 -15.3435 -15.3417 -15.3417 -15.3416 -15.3378
   -15.3378 -15.3377 -15.3287 -15.3287 -15.3286 -15.3265 -15.3264 -15.3264
   -15.3253 -15.3253 -15.3252 -15.3228 -15.3228 -15.3227  -5.0672  -5.0663
    -4.9857  -4.9043  -4.7848  -4.7468  -4.6292  -4.5844  -4.5579  -2.9539
    -2.9502  -2.8897  -2.6198  -2.5688  -2.5587   2.5144   2.6841   2.7837
     3.6580   3.7225   3.7593   3.8287   3.9132   3.9646   4.1030   4.3797
     4.4297   4.5177   4.9826   5.0184   5.0905   5.2810   5.5448   5.6268
     6.1255   6.1663   6.2745   6.5385   6.8019   6.9391   7.0476   7.0608

          k = 0.0159 0.0645-0.0046 ( 22499 PWs)   bands (ev):

   -15.3666 -15.3665 -15.3664 -15.3619 -15.3619 -15.3618 -15.3468 -15.3468
   -15.3467 -15.3436 -15.3435 -15.3435 -15.3417 -15.3417 -15.3416 -15.3378
   -15.3378 -15.3377 -15.3287 -15.3287 -15.3286 -15.3265 -15.3265 -15.3264
   -15.3253 -15.3253 -15.3252 -15.3228 -15.3228 -15.3227  -5.0818  -5.0257
    -5.0246  -4.8615  -4.8375  -4.7174  -4.6374  -4.5848  -4.5561  -2.9692
    -2.9157  -2.9101  -2.6047  -2.5928  -2.5487   2.5423   2.6077   2.8509
     3.5485   3.6810   3.7984   3.8761   3.9755   4.0283   4.1349   4.2607
     4.4004   4.6357   4.7244   5.0203   5.2884   5.3104   5.5056   5.7708
     5.9120   6.0532   6.4708   6.5866   6.7807   6.7855   7.0195   7.2059

          k = 0.0161-0.0461 0.0047 ( 22514 PWs)   bands (ev):

   -15.3626 -15.3625 -15.3625 -15.3590 -15.3590 -15.3589 -15.3443 -15.3443
   -15.3442 -15.3428 -15.3428 -15.3427 -15.3407 -15.3407 -15.3406 -15.3392
   -15.3392 -15.3391 -15.3346 -15.3345 -15.3345 -15.3311 -15.3310 -15.3310
   -15.3275 -15.3274 -15.3274 -15.3257 -15.3256 -15.3255  -5.7085  -5.6575
    -5.5985  -5.3435  -5.2405  -5.0826  -4.6810  -4.5470  -4.4993  -2.5303
    -2.4881  -2.4324  -2.1153  -2.0904  -2.0438   3.0617   3.1149   3.3706
     3.6528   3.7720   4.0143   4.0928   4.3692   4.4703   4.5221   4.6790
     4.7165   4.8386   5.1549   5.2015   5.3143   5.5772   5.8491   6.1271
     6.1685   6.2829   6.5437   6.5601   7.0051   7.0667   7.0921   7.1663

          k = 0.0161-0.0461-0.0046 ( 22512 PWs)   bands (ev):

   -15.3626 -15.3625 -15.3625 -15.3590 -15.3590 -15.3589 -15.3443 -15.3443
   -15.3442 -15.3428 -15.3428 -15.3427 -15.3407 -15.3407 -15.3406 -15.3392
   -15.3392 -15.3391 -15.3346 -15.3346 -15.3345 -15.3311 -15.3310 -15.3310
   -15.3275 -15.3274 -15.3274 -15.3257 -15.3256 -15.3255  -5.7049  -5.6678
    -5.5880  -5.3631  -5.2061  -5.1057  -4.6538  -4.5870  -4.4820  -2.5335
    -2.4843  -2.4323  -2.1270  -2.0706  -2.0527   3.0312   3.1938   3.2966
     3.6512   3.8669   3.9259   4.1153   4.3654   4.5234   4.5383   4.5736
     4.7653   4.8395   4.9766   5.3682   5.4007   5.6255   5.8227   5.9269
     6.0240   6.4839   6.6026   6.6865   6.8700   7.0061   7.1012   7.1948

          k = 0.0160-0.0092 0.0046 ( 22580 PWs)   bands (ev):

   -15.3558 -15.3558 -15.3557 -15.3537 -15.3536 -15.3536 -15.3490 -15.3490
   -15.3489 -15.3475 -15.3475 -15.3474 -15.3427 -15.3426 -15.3425 -15.3404
   -15.3403 -15.3402 -15.3350 -15.3350 -15.3349 -15.3345 -15.3345 -15.3345
   -15.3318 -15.3318 -15.3317 -15.3314 -15.3313 -15.3313  -6.4872  -6.4367
    -6.3549  -6.0487  -5.8889  -5.7397  -4.9872  -4.8419  -4.7089  -2.2554
    -2.0871  -1.9149  -1.1717  -1.0412  -0.9141   4.6781   4.7586   4.8071
     4.9040   5.0618   5.0804   5.4219   5.4412   5.4597   5.5272   5.5757
     5.5797   5.7563   5.8620   5.9492   6.0046   6.0708   6.4370   6.5197
     6.5875   6.6612   6.7503   6.9041   7.0300   7.1736   7.4001   7.4400

          k = 0.0160-0.0092-0.0046 ( 22561 PWs)   bands (ev):

   -15.3558 -15.3558 -15.3557 -15.3536 -15.3536 -15.3536 -15.3490 -15.3490
   -15.3489 -15.3475 -15.3475 -15.3474 -15.3427 -15.3426 -15.3425 -15.3404
   -15.3403 -15.3402 -15.3350 -15.3350 -15.3349 -15.3345 -15.3345 -15.3344
   -15.3318 -15.3318 -15.3317 -15.3314 -15.3313 -15.3313  -6.4878  -6.4351
    -6.3565  -6.0459  -5.8937  -5.7368  -4.9908  -4.8359  -4.7117  -2.2476
    -2.1060  -1.9014  -1.1870  -1.0191  -0.9234   4.6846   4.7282   4.8639
     4.9067   4.9562   5.1645   5.4259   5.4324   5.4945   5.5006   5.5361
     5.6037   5.7668   5.7996   5.8999   6.0921   6.1772   6.3641   6.4473
     6.5619   6.6753   6.7508   7.0603   7.0871   7.1254   7.1838   7.5619

          k = 0.0479 0.0460 0.0046 ( 22499 PWs)   bands (ev):

   -15.3666 -15.3665 -15.3664 -15.3619 -15.3619 -15.3618 -15.3468 -15.3468
   -15.3467 -15.3436 -15.3435 -15.3435 -15.3417 -15.3417 -15.3416 -15.3378
   -15.3378 -15.3377 -15.3287 -15.3287 -15.3286 -15.3265 -15.3265 -15.3264
   -15.3253 -15.3253 -15.3252 -15.3228 -15.3228 -15.3227  -5.0818  -5.0257
    -5.0246  -4.8615  -4.8375  -4.7174  -4.6374  -4.5848  -4.5561  -2.9692
    -2.9157  -2.9101  -2.6047  -2.5928  -2.5487   2.5423   2.6077   2.8509
     3.5485   3.6810   3.7984   3.8761   3.9755   4.0283   4.1349   4.2607
     4.4004   4.6357   4.7244   5.0203   5.2884   5.3104   5.5056   5.7708
     5.9120   6.0532   6.4708   6.5866   6.7807   6.7855   7.0195   7.2059

          k = 0.0479 0.0460-0.0046 ( 22492 PWs)   bands (ev):

   -15.3666 -15.3665 -15.3664 -15.3619 -15.3619 -15.3618 -15.3468 -15.3468
   -15.3467 -15.3436 -15.3435 -15.3435 -15.3417 -15.3417 -15.3416 -15.3378
   -15.3378 -15.3377 -15.3287 -15.3287 -15.3286 -15.3265 -15.3264 -15.3264
   -15.3253 -15.3253 -15.3252 -15.3228 -15.3228 -15.3227  -5.0672  -5.0663
    -4.9857  -4.9043  -4.7848  -4.7468  -4.6292  -4.5844  -4.5578  -2.9539
    -2.9502  -2.8897  -2.6198  -2.5688  -2.5587   2.5144   2.6841   2.7837
     3.6580   3.7225   3.7593   3.8287   3.9132   3.9646   4.1030   4.3797
     4.4297   4.5177   4.9826   5.0184   5.0905   5.2810   5.5448   5.6268
     6.1255   6.1663   6.2745   6.5385   6.8019   6.9391   7.0476   7.0607

          k = 0.0478 0.0828 0.0046 ( 22436 PWs)   bands (ev):

   -15.3612 -15.3611 -15.3610 -15.3584 -15.3583 -15.3582 -15.3489 -15.3488
   -15.3488 -15.3413 -15.3413 -15.3412 -15.3388 -15.3388 -15.3387 -15.3358
   -15.3358 -15.3357 -15.3315 -15.3315 -15.3314 -15.3311 -15.3310 -15.3310
   -15.3268 -15.3267 -15.3266 -15.3253 -15.3252 -15.3251  -4.6863  -4.6784
    -4.6644  -4.6411  -4.6211  -4.6045  -4.5623  -4.5528  -4.5461  -3.0683
    -3.0674  -3.0664  -2.9562  -2.9522  -2.9483   2.7078   2.8135   2.9633
     3.2759   3.2908   3.3467   3.4650   3.6536   3.6717   3.7447   3.9961
     4.3242   4.4180   4.4655   4.8041   4.8204   5.2165   5.2458   5.6709
     5.9404   6.3294   6.3510   6.4878   6.7353   6.8383   7.0923   7.1672

          k = 0.0478 0.0828-0.0046 ( 22436 PWs)   bands (ev):

   -15.3612 -15.3611 -15.3610 -15.3584 -15.3583 -15.3582 -15.3489 -15.3488
   -15.3488 -15.3413 -15.3413 -15.3412 -15.3388 -15.3388 -15.3387 -15.3358
   -15.3358 -15.3357 -15.3315 -15.3315 -15.3314 -15.3311 -15.3310 -15.3310
   -15.3268 -15.3267 -15.3266 -15.3253 -15.3252 -15.3251  -4.6863  -4.6784
    -4.6644  -4.6411  -4.6211  -4.6045  -4.5623  -4.5528  -4.5461  -3.0683
    -3.0674  -3.0664  -2.9562  -2.9522  -2.9483   2.7078   2.8135   2.9633
     3.2759   3.2908   3.3467   3.4650   3.6536   3.6717   3.7447   3.9961
     4.3242   4.4180   4.4655   4.8041   4.8204   5.2165   5.2458   5.6709
     5.9404   6.3294   6.3510   6.4878   6.7353   6.8383   7.0923   7.1672

          k = 0.0480-0.0277 0.0047 ( 22482 PWs)   bands (ev):

   -15.3696 -15.3695 -15.3694 -15.3651 -15.3651 -15.3650 -15.3453 -15.3452
   -15.3452 -15.3403 -15.3403 -15.3402 -15.3399 -15.3399 -15.3398 -15.3355
   -15.3355 -15.3354 -15.3287 -15.3287 -15.3286 -15.3275 -15.3275 -15.3275
   -15.3268 -15.3268 -15.3267 -15.3258 -15.3257 -15.3256  -5.4680  -5.4529
    -5.3588  -5.1948  -5.0020  -4.9901  -4.6208  -4.5996  -4.5043  -2.7364
    -2.6555  -2.6508  -2.2674  -2.2452  -2.1795   2.6734   2.6771   2.9798
     3.5140   3.9412   4.1672   4.3822   4.4356   4.4534   4.4605   4.5359
     4.5770   5.0345   5.1115   5.1225   5.1917   5.4223   5.6746   5.9444
     6.0695   6.1626   6.4064   6.4795   6.5329   6.6727   7.1057   7.1381

          k = 0.0480-0.0277-0.0045 ( 22480 PWs)   bands (ev):

   -15.3696 -15.3695 -15.3694 -15.3651 -15.3651 -15.3650 -15.3453 -15.3452
   -15.3452 -15.3403 -15.3403 -15.3402 -15.3399 -15.3399 -15.3398 -15.3355
   -15.3355 -15.3354 -15.3287 -15.3287 -15.3286 -15.3275 -15.3275 -15.3275
   -15.3268 -15.3268 -15.3267 -15.3258 -15.3257 -15.3256  -5.4807  -5.4169
    -5.3937  -5.1323  -5.1103  -4.9216  -4.6673  -4.5438  -4.5244  -2.7152
    -2.7077  -2.6170  -2.2902  -2.2123  -2.1925   2.6147   2.8399   2.8402
     3.6893   3.7856   4.0771   4.3507   4.4555   4.4810   4.4904   4.6270
     4.6578   4.9498   4.9703   5.2565   5.3023   5.3339   5.5376   5.8883
     6.2595   6.2850   6.3274   6.4348   6.6017   6.6605   6.8386   7.3228

          k = 0.0480 0.0091 0.0047 ( 22514 PWs)   bands (ev):

   -15.3626 -15.3625 -15.3625 -15.3590 -15.3590 -15.3589 -15.3443 -15.3443
   -15.3442 -15.3428 -15.3428 -15.3427 -15.3407 -15.3407 -15.3406 -15.3392
   -15.3392 -15.3391 -15.3346 -15.3345 -15.3345 -15.3311 -15.3310 -15.3310
   -15.3275 -15.3274 -15.3274 -15.3257 -15.3256 -15.3255  -5.7085  -5.6575
    -5.5985  -5.3435  -5.2405  -5.0826  -4.6810  -4.5470  -4.4993  -2.5303
    -2.4881  -2.4324  -2.1153  -2.0904  -2.0438   3.0617   3.1149   3.3706
     3.6528   3.7720   4.0143   4.0928   4.3692   4.4703   4.5221   4.6790
     4.7165   4.8386   5.1549   5.2015   5.3143   5.5772   5.8491   6.1271
     6.1685   6.2829   6.5437   6.5601   7.0051   7.0667   7.0921   7.1663

          k = 0.0479 0.0091-0.0046 ( 22512 PWs)   bands (ev):

   -15.3626 -15.3625 -15.3625 -15.3590 -15.3590 -15.3589 -15.3443 -15.3443
   -15.3442 -15.3428 -15.3428 -15.3427 -15.3407 -15.3407 -15.3406 -15.3392
   -15.3392 -15.3391 -15.3346 -15.3346 -15.3345 -15.3311 -15.3310 -15.3310
   -15.3275 -15.3274 -15.3274 -15.3257 -15.3256 -15.3255  -5.7049  -5.6678
    -5.5880  -5.3631  -5.2061  -5.1057  -4.6538  -4.5870  -4.4820  -2.5335
    -2.4843  -2.4323  -2.1270  -2.0706  -2.0527   3.0312   3.1938   3.2966
     3.6512   3.8669   3.9259   4.1153   4.3654   4.5233   4.5383   4.5736
     4.7653   4.8395   4.9766   5.3682   5.4007   5.6255   5.8227   5.9269
     6.0240   6.4839   6.6026   6.6865   6.8700   7.0061   7.1012   7.1948

* XDM dispersion
  a1 =     0.608200
  a2 (ang) =     1.583400
  a2 (bohr) =     2.992192
 
+ Volumes and moments
# All results in atomic units.
# i          V                 Vfree               M1                 M2                 M3
  1   9.8537176056E+01   9.9199264526E+01   8.3851154057E+00   1.6170549648E+02   3.1327311706E+03
  2   9.8537442595E+01   9.9199264526E+01   8.3852777925E+00   1.6170541754E+02   3.1327300010E+03
  3   9.8537442595E+01   9.9199264526E+01   8.3852777925E+00   1.6170541754E+02   3.1327300010E+03
  4   1.8544308744E+02   1.9459034729E+02   1.2949021057E+01   2.8821965305E+02   8.0885291934E+03
  5   1.8544345224E+02   1.9459034729E+02   1.2949304774E+01   2.8821999398E+02   8.0885356455E+03
  6   1.8544351231E+02   1.9459034729E+02   1.2949308572E+01   2.8821998895E+02   8.0885368916E+03
  7   1.8544308744E+02   1.9459034729E+02   1.2949021057E+01   2.8821965305E+02   8.0885291934E+03
  8   1.8544351231E+02   1.9459034729E+02   1.2949308572E+01   2.8821998895E+02   8.0885368916E+03
  9   1.8544345224E+02   1.9459034729E+02   1.2949304774E+01   2.8821999398E+02   8.0885356455E+03
 10   9.7657633041E+01   9.9199264526E+01   9.0285500403E+00   1.7238616769E+02   3.3407499091E+03
 11   9.7657740449E+01   9.9199264526E+01   9.0283275320E+00   1.7238594091E+02   3.3407451701E+03
 12   9.7657736757E+01   9.9199264526E+01   9.0282974028E+00   1.7238620453E+02   3.3407496944E+03
 13   9.7657633041E+01   9.9199264526E+01   9.0285500403E+00   1.7238616769E+02   3.3407499091E+03
 14   9.7657736757E+01   9.9199264526E+01   9.0282974028E+00   1.7238620453E+02   3.3407496944E+03
 15   9.7657740449E+01   9.9199264526E+01   9.0283275320E+00   1.7238594091E+02   3.3407451701E+03
 
+ Dispersion coefficients
# All results in atomic units.
# i   j          C6                 C8                 C10                Rc                Rvdw
  1   1   1.0595187950E+02   6.1297908673E+03   3.2383385516E+05   7.4366627874E+00   7.5151706661E+00
  2   1   1.0595304873E+02   6.1297976616E+03   3.2383258029E+05   7.4366348143E+00   7.5151536529E+00
  2   2   1.0595421798E+02   6.1298044556E+03   3.2383130544E+05   7.4366068412E+00   7.5151366396E+00
  3   1   1.0595304873E+02   6.1297976616E+03   3.2383258029E+05   7.4366348143E+00   7.5151536529E+00
  3   2   1.0595421798E+02   6.1298044556E+03   3.2383130544E+05   7.4366068412E+00   7.5151366396E+00
  3   3   1.0595421798E+02   6.1298044556E+03   3.2383130544E+05   7.4366068412E+00   7.5151366396E+00
  4   1   1.7979742298E+02   1.1203946875E+04   6.8310753306E+05   7.8511035351E+00   7.7672335289E+00
  4   2   1.7979925903E+02   1.1203958025E+04   6.8310542137E+05   7.8510773876E+00   7.7672176260E+00
  4   3   1.7979925903E+02   1.1203958025E+04   6.8310542137E+05   7.8510773876E+00   7.7672176260E+00
  4   4   3.0812335928E+02   2.0574653632E+04   1.4110013730E+06   8.2263492489E+00   7.9954579720E+00
  5   1   1.7979974678E+02   1.1203967257E+04   6.8310490112E+05   7.8510705662E+00   7.7672134772E+00
  5   2   1.7980158287E+02   1.1203978408E+04   6.8310278947E+05   7.8510444188E+00   7.7671975743E+00
  5   3   1.7980158287E+02   1.1203978408E+04   6.8310278947E+05   7.8510444188E+00   7.7671975743E+00
  5   4   3.0812703785E+02   2.0574686038E+04   1.4109968027E+06   8.2263180856E+00   7.9954390185E+00
  5   5   3.0813071649E+02   2.0574718444E+04   1.4109922325E+06   8.2262869224E+00   7.9954200650E+00
  6   1   1.7979980200E+02   1.1203968833E+04   6.8310497889E+05   7.8510701859E+00   7.7672132459E+00
  6   2   1.7980163809E+02   1.1203979983E+04   6.8310286724E+05   7.8510440385E+00   7.7671973430E+00
  6   3   1.7980163809E+02   1.1203979983E+04   6.8310286724E+05   7.8510440385E+00   7.7671973430E+00
  6   4   3.0812713295E+02   2.0574689191E+04   1.4109969853E+06   8.2263177183E+00   7.9954387951E+00
  6   5   3.0813081160E+02   2.0574721597E+04   1.4109924151E+06   8.2262865550E+00   7.9954198416E+00
  6   6   3.0813090670E+02   2.0574724750E+04   1.4109925977E+06   8.2262861877E+00   7.9954196181E+00
  7   1   1.7979742298E+02   1.1203946875E+04   6.8310753306E+05   7.8511035351E+00   7.7672335289E+00
  7   2   1.7979925903E+02   1.1203958025E+04   6.8310542137E+05   7.8510773876E+00   7.7672176260E+00
  7   3   1.7979925903E+02   1.1203958025E+04   6.8310542137E+05   7.8510773876E+00   7.7672176260E+00
  7   4   3.0812335928E+02   2.0574653632E+04   1.4110013730E+06   8.2263492489E+00   7.9954579720E+00
  7   5   3.0812703785E+02   2.0574686038E+04   1.4109968027E+06   8.2263180856E+00   7.9954390185E+00
  7   6   3.0812713295E+02   2.0574689191E+04   1.4109969853E+06   8.2263177183E+00   7.9954387951E+00
  7   7   3.0812335928E+02   2.0574653632E+04   1.4110013730E+06   8.2263492489E+00   7.9954579720E+00
  8   1   1.7979980200E+02   1.1203968833E+04   6.8310497889E+05   7.8510701859E+00   7.7672132459E+00
  8   2   1.7980163809E+02   1.1203979983E+04   6.8310286724E+05   7.8510440385E+00   7.7671973430E+00
  8   3   1.7980163809E+02   1.1203979983E+04   6.8310286724E+05   7.8510440385E+00   7.7671973430E+00
  8   4   3.0812713295E+02   2.0574689191E+04   1.4109969853E+06   8.2263177183E+00   7.9954387951E+00
  8   5   3.0813081160E+02   2.0574721597E+04   1.4109924151E+06   8.2262865550E+00   7.9954198416E+00
  8   6   3.0813090670E+02   2.0574724750E+04   1.4109925977E+06   8.2262861877E+00   7.9954196181E+00
  8   7   3.0812713295E+02   2.0574689191E+04   1.4109969853E+06   8.2263177183E+00   7.9954387951E+00
  8   8   3.0813090670E+02   2.0574724750E+04   1.4109925977E+06   8.2262861877E+00   7.9954196181E+00
  9   1   1.7979974678E+02   1.1203967257E+04   6.8310490112E+05   7.8510705662E+00   7.7672134772E+00
  9   2   1.7980158287E+02   1.1203978408E+04   6.8310278947E+05   7.8510444188E+00   7.7671975743E+00
  9   3   1.7980158287E+02   1.1203978408E+04   6.8310278947E+05   7.8510444188E+00   7.7671975743E+00
  9   4   3.0812703785E+02   2.0574686038E+04   1.4109968027E+06   8.2263180856E+00   7.9954390185E+00
  9   5   3.0813071649E+02   2.0574718444E+04   1.4109922325E+06   8.2262869224E+00   7.9954200650E+00
  9   6   3.0813081160E+02   2.0574721597E+04   1.4109924151E+06   8.2262865550E+00   7.9954198416E+00
  9   7   3.0812703785E+02   2.0574686038E+04   1.4109968027E+06   8.2263180856E+00   7.9954390185E+00
  9   8   3.0813081160E+02   2.0574721597E+04   1.4109924151E+06   8.2262865550E+00   7.9954198416E+00
  9   9   3.0813071649E+02   2.0574718444E+04   1.4109922325E+06   8.2262869224E+00   7.9954200650E+00
 10   1   1.0935615127E+02   6.2953509098E+03   3.3175943818E+05   7.4227639862E+00   7.5067174152E+00
 10   2   1.0935739580E+02   6.2953597484E+03   3.3175824313E+05   7.4227360473E+00   7.5067004228E+00
 10   3   1.0935739580E+02   6.2953597484E+03   3.3175824313E+05   7.4227360473E+00   7.5067004228E+00
 10   4   1.8481739174E+02   1.1463707997E+04   6.9754814562E+05   7.8381066612E+00   7.7593288302E+00
 10   5   1.8481985571E+02   1.1463732933E+04   6.9754573302E+05   7.8380737252E+00   7.7593087985E+00
 10   6   1.8481991236E+02   1.1463734529E+04   6.9754581214E+05   7.8380733460E+00   7.7593085678E+00
 10   7   1.8481739174E+02   1.1463707997E+04   6.9754814562E+05   7.8381066612E+00   7.7593288302E+00
 10   8   1.8481991236E+02   1.1463734529E+04   6.9754581214E+05   7.8380733460E+00   7.7593085678E+00
 10   9   1.8481985571E+02   1.1463732933E+04   6.9754573302E+05   7.8380737252E+00   7.7593087985E+00
 10  10   1.1306383508E+02   6.4763360056E+03   3.4046164843E+05   7.4088830763E+00   7.4982750458E+00
 11   1   1.0935492216E+02   6.2953532216E+03   3.3176153457E+05   7.4227967241E+00   7.5067373264E+00
 11   2   1.0935616667E+02   6.2953620603E+03   3.3176033949E+05   7.4227687851E+00   7.5067203339E+00
 11   3   1.0935616667E+02   6.2953620603E+03   3.3176033949E+05   7.4227687851E+00   7.5067203339E+00
 11   4   1.8481554835E+02   1.1463717146E+04   6.9755206112E+05   7.8381372425E+00   7.7593474297E+00
 11   5   1.8481801227E+02   1.1463742082E+04   6.9754964845E+05   7.8381043065E+00   7.7593273980E+00
 11   6   1.8481806892E+02   1.1463743678E+04   6.9754972756E+05   7.8381039272E+00   7.7593271674E+00
 11   7   1.8481554835E+02   1.1463717146E+04   6.9755206112E+05   7.8381372425E+00   7.7593474297E+00
 11   8   1.8481806892E+02   1.1463743678E+04   6.9754972756E+05   7.8381039272E+00   7.7593271674E+00
 11   9   1.8481801227E+02   1.1463742082E+04   6.9754964845E+05   7.8381043065E+00   7.7593273980E+00
 11  10   1.1306250401E+02   6.4763353070E+03   3.4046362248E+05   7.4089157742E+00   7.4982949327E+00
 11  11   1.1306117298E+02   6.4763346086E+03   3.4046559660E+05   7.4089484722E+00   7.4983148196E+00
 12   1   1.0935474510E+02   6.2953582701E+03   3.3176220009E+05   7.4228034846E+00   7.5067414381E+00
 12   2   1.0935598960E+02   6.2953671089E+03   3.3176100500E+05   7.4227755456E+00   7.5067244456E+00
 12   3   1.0935598960E+02   6.2953671089E+03   3.3176100500E+05   7.4227755456E+00   7.5067244456E+00
 12   4   1.8481527907E+02   1.1463726203E+04   6.9755329185E+05   7.8381435629E+00   7.7593512738E+00
 12   5   1.8481774298E+02   1.1463751138E+04   6.9755087916E+05   7.8381106268E+00   7.7593312420E+00
 12   6   1.8481779963E+02   1.1463752734E+04   6.9755095827E+05   7.8381102476E+00   7.7593310114E+00
 12   7   1.8481527907E+02   1.1463726203E+04   6.9755329185E+05   7.8381435629E+00   7.7593512738E+00
 12   8   1.8481779963E+02   1.1463752734E+04   6.9755095827E+05   7.8381102476E+00   7.7593310114E+00
 12   9   1.8481774298E+02   1.1463751138E+04   6.9755087916E+05   7.8381106268E+00   7.7593312420E+00
 12  10   1.1306231322E+02   6.4763401366E+03   3.4046428297E+05   7.4089225260E+00   7.4982990391E+00
 12  11   1.1306098219E+02   6.4763394382E+03   3.4046625709E+05   7.4089552240E+00   7.4983189260E+00
 12  12   1.1306079140E+02   6.4763442677E+03   3.4046691759E+05   7.4089619758E+00   7.4983230325E+00
 13   1   1.0935615127E+02   6.2953509098E+03   3.3175943818E+05   7.4227639862E+00   7.5067174152E+00
 13   2   1.0935739580E+02   6.2953597484E+03   3.3175824313E+05   7.4227360473E+00   7.5067004228E+00
 13   3   1.0935739580E+02   6.2953597484E+03   3.3175824313E+05   7.4227360473E+00   7.5067004228E+00
 13   4   1.8481739174E+02   1.1463707997E+04   6.9754814562E+05   7.8381066612E+00   7.7593288302E+00
 13   5   1.8481985571E+02   1.1463732933E+04   6.9754573302E+05   7.8380737252E+00   7.7593087985E+00
 13   6   1.8481991236E+02   1.1463734529E+04   6.9754581214E+05   7.8380733460E+00   7.7593085678E+00
 13   7   1.8481739174E+02   1.1463707997E+04   6.9754814562E+05   7.8381066612E+00   7.7593288302E+00
 13   8   1.8481991236E+02   1.1463734529E+04   6.9754581214E+05   7.8380733460E+00   7.7593085678E+00
 13   9   1.8481985571E+02   1.1463732933E+04   6.9754573302E+05   7.8380737252E+00   7.7593087985E+00
 13  10   1.1306383508E+02   6.4763360056E+03   3.4046164843E+05   7.4088830763E+00   7.4982750458E+00
 13  11   1.1306250401E+02   6.4763353070E+03   3.4046362248E+05   7.4089157742E+00   7.4982949327E+00
 13  12   1.1306231322E+02   6.4763401366E+03   3.4046428297E+05   7.4089225260E+00   7.4982990391E+00
 13  13   1.1306383508E+02   6.4763360056E+03   3.4046164843E+05   7.4088830763E+00   7.4982750458E+00
 14   1   1.0935474510E+02   6.2953582701E+03   3.3176220009E+05   7.4228034846E+00   7.5067414381E+00
 14   2   1.0935598960E+02   6.2953671089E+03   3.3176100500E+05   7.4227755456E+00   7.5067244456E+00
 14   3   1.0935598960E+02   6.2953671089E+03   3.3176100500E+05   7.4227755456E+00   7.5067244456E+00
 14   4   1.8481527907E+02   1.1463726203E+04   6.9755329185E+05   7.8381435629E+00   7.7593512738E+00
 14   5   1.8481774298E+02   1.1463751138E+04   6.9755087916E+05   7.8381106268E+00   7.7593312420E+00
 14   6   1.8481779963E+02   1.1463752734E+04   6.9755095827E+05   7.8381102476E+00   7.7593310114E+00
 14   7   1.8481527907E+02   1.1463726203E+04   6.9755329185E+05   7.8381435629E+00   7.7593512738E+00
 14   8   1.8481779963E+02   1.1463752734E+04   6.9755095827E+05   7.8381102476E+00   7.7593310114E+00
 14   9   1.8481774298E+02   1.1463751138E+04   6.9755087916E+05   7.8381106268E+00   7.7593312420E+00
 14  10   1.1306231322E+02   6.4763401366E+03   3.4046428297E+05   7.4089225260E+00   7.4982990391E+00
 14  11   1.1306098219E+02   6.4763394382E+03   3.4046625709E+05   7.4089552240E+00   7.4983189260E+00
 14  12   1.1306079140E+02   6.4763442677E+03   3.4046691759E+05   7.4089619758E+00   7.4983230325E+00
 14  13   1.1306231322E+02   6.4763401366E+03   3.4046428297E+05   7.4089225260E+00   7.4982990391E+00
 14  14   1.1306079140E+02   6.4763442677E+03   3.4046691759E+05   7.4089619758E+00   7.4983230325E+00
 15   1   1.0935492216E+02   6.2953532216E+03   3.3176153457E+05   7.4227967241E+00   7.5067373264E+00
 15   2   1.0935616667E+02   6.2953620603E+03   3.3176033949E+05   7.4227687851E+00   7.5067203339E+00
 15   3   1.0935616667E+02   6.2953620603E+03   3.3176033949E+05   7.4227687851E+00   7.5067203339E+00
 15   4   1.8481554835E+02   1.1463717146E+04   6.9755206112E+05   7.8381372425E+00   7.7593474297E+00
 15   5   1.8481801227E+02   1.1463742082E+04   6.9754964845E+05   7.8381043065E+00   7.7593273980E+00
 15   6   1.8481806892E+02   1.1463743678E+04   6.9754972756E+05   7.8381039272E+00   7.7593271674E+00
 15   7   1.8481554835E+02   1.1463717146E+04   6.9755206112E+05   7.8381372425E+00   7.7593474297E+00
 15   8   1.8481806892E+02   1.1463743678E+04   6.9754972756E+05   7.8381039272E+00   7.7593271674E+00
 15   9   1.8481801227E+02   1.1463742082E+04   6.9754964845E+05   7.8381043065E+00   7.7593273980E+00
 15  10   1.1306250401E+02   6.4763353070E+03   3.4046362248E+05   7.4089157742E+00   7.4982949327E+00
 15  11   1.1306117298E+02   6.4763346086E+03   3.4046559660E+05   7.4089484722E+00   7.4983148196E+00
 15  12   1.1306098219E+02   6.4763394382E+03   3.4046625709E+05   7.4089552240E+00   7.4983189260E+00
 15  13   1.1306250401E+02   6.4763353070E+03   3.4046362248E+05   7.4089157742E+00   7.4982949327E+00
 15  14   1.1306098219E+02   6.4763394382E+03   3.4046625709E+05   7.4089552240E+00   7.4983189260E+00
 15  15   1.1306117298E+02   6.4763346086E+03   3.4046559660E+05   7.4089484722E+00   7.4983148196E+00
 
+ van der Waals energy
  Evdw   =  -2.398584078235E-01 Hartree,  -4.797168156469E-01 Ry
  Evdw6 =  -9.216500410992E-02 Hartree,  -1.843300082198E-01 Ry
  Evdw8 =  -7.689726556565E-02 Hartree,  -1.537945311313E-01 Ry
  Evdw10 =  -7.079613814790E-02 Hartree,  -1.415922762958E-01 Ry
  Evdw9  =   0.000000000000E+00 Hartree,   0.000000000000E+00 Ry
  Fvdw (01) =   3.152098498570E-13   5.459694421942E-13  -1.221427243357E-16  Hartree/bohr
            =   6.304196997139E-13   1.091938884388E-12  -2.442854486714E-16  Ry/bohr
  Fvdw (02) =  -3.070789198662E-10   1.780741696197E-10  -3.528427710177E-08  Hartree/bohr
            =  -6.141578397324E-10   3.561483392393E-10  -7.056855420354E-08  Ry/bohr
  Fvdw (03) =   3.070789215886E-10  -1.780741687870E-10   3.528427714251E-08  Hartree/bohr
            =   6.141578431773E-10  -3.561483375739E-10   7.056855428502E-08  Ry/bohr
  Fvdw (04) =   1.216162900963E-06  -7.019001115628E-07  -1.238234478847E-03  Hartree/bohr
            =   2.432325801926E-06  -1.403800223126E-06  -2.476468957693E-03  Ry/bohr
  Fvdw (05) =   1.216187029686E-06  -7.019105469975E-07  -1.238222533848E-03  Hartree/bohr
            =   2.432374059373E-06  -1.403821093995E-06  -2.476445067695E-03  Ry/bohr
  Fvdw (06) =   1.216103121232E-06  -7.018615759676E-07  -1.238230164930E-03  Hartree/bohr
            =   2.432206242463E-06  -1.403723151935E-06  -2.476460329860E-03  Ry/bohr
  Fvdw (07) =  -1.216162900958E-06   7.019001115632E-07   1.238234478846E-03  Hartree/bohr
            =  -2.432325801916E-06   1.403800223126E-06   2.476468957693E-03  Ry/bohr
  Fvdw (08) =  -1.216103121223E-06   7.018615759675E-07   1.238230164930E-03  Hartree/bohr
            =  -2.432206242445E-06   1.403723151935E-06   2.476460329860E-03  Ry/bohr
  Fvdw (09) =  -1.216187029682E-06   7.019105469972E-07   1.238222533848E-03  Hartree/bohr
            =  -2.432374059363E-06   1.403821093994E-06   2.476445067696E-03  Ry/bohr
  Fvdw (10) =   3.049152233802E-06  -1.762000857294E-06  -2.765046571931E-04  Hartree/bohr
            =   6.098304467604E-06  -3.524001714587E-06  -5.530093143862E-04  Ry/bohr
  Fvdw (11) =   3.048242751142E-06  -1.761478639208E-06  -2.765038388366E-04  Hartree/bohr
            =   6.096485502285E-06  -3.522957278416E-06  -5.530076776732E-04  Ry/bohr
  Fvdw (12) =   3.048921490045E-06  -1.761867927990E-06  -2.765473822799E-04  Hartree/bohr
            =   6.097842980091E-06  -3.523735855980E-06  -5.530947645597E-04  Ry/bohr
  Fvdw (13) =  -3.049152549008E-06   1.762000311327E-06   2.765046571933E-04  Hartree/bohr
            =  -6.098305098016E-06   3.524000622655E-06   5.530093143865E-04  Ry/bohr
  Fvdw (14) =  -3.048921490045E-06   1.761867927991E-06   2.765473822799E-04  Hartree/bohr
            =  -6.097842980091E-06   3.523735855982E-06   5.530947645599E-04  Ry/bohr
  Fvdw (15) =  -3.048242751145E-06   1.761478639209E-06   2.765038388365E-04  Hartree/bohr
            =  -6.096485502290E-06   3.522957278418E-06   5.530076776729E-04  Ry/bohr
  sigma_vdw (Hy/bohr**3) =  -9.611029520543E-05   5.158597868720E-08  -6.747450651755E-08  
                             5.158597868720E-08  -9.605072964717E-05   3.896622932470E-08  
                            -6.747450651755E-08   3.896622932470E-08  -9.123499130404E-05  
  sigma_vdw (Ry/bohr**3) =  -1.922205904109E-04   1.031719573744E-07  -1.349490130351E-07  
                             1.031719573744E-07  -1.921014592943E-04   7.793245864940E-08  
                            -1.349490130351E-07   7.793245864940E-08  -1.824699826081E-04  
  sigma_vdw (GPa) =  -2.827662033588E+00   1.517711636277E-03  -1.985168185228E-03  
                      1.517711636277E-03  -2.825909554655E+00   1.146425853942E-03  
                     -1.985168185228E-03   1.146425853942E-03  -2.684225664833E+00  
 

!    total energy              =   -7168.31380288 Ry
     Harris-Foulkes estimate   =   -7168.31380288 Ry
     estimated scf accuracy    <          1.8E-09 Ry

     total all-electron energy =   -302138.793838 Ry

     The total energy is the sum of the following terms:

     one-electron contribution =    -365.82565572 Ry
     hartree contribution      =     301.46074932 Ry
     xc contribution           =    -399.16708967 Ry
     ewald contribution        =    -733.67079092 Ry
     Dispersion XDM Correction =      -0.47971682 Ry
     Uncorrected (XDM) energy  =   -7167.83408606 Ry
     one-center paw contrib.   =   -5970.63129907 Ry

     convergence has been achieved in  24 iterations

     Forces acting on atoms (Ry/au):

     atom    1 type  1   force =     0.00000000    0.00000000    0.00000000
     atom    2 type  1   force =    -0.00000013    0.00000008    0.00000524
     atom    3 type  1   force =     0.00000013   -0.00000008   -0.00000524
     atom    4 type  2   force =    -0.00014359    0.00008293   -0.00007652
     atom    5 type  2   force =    -0.00014393    0.00008313   -0.00006694
     atom    6 type  2   force =    -0.00014376    0.00008303   -0.00007878
     atom    7 type  2   force =     0.00014359   -0.00008293    0.00007652
     atom    8 type  2   force =     0.00014376   -0.00008303    0.00007878
     atom    9 type  2   force =     0.00014393   -0.00008313    0.00006694
     atom   10 type  1   force =    -0.00022707    0.00013098   -0.00031746
     atom   11 type  1   force =    -0.00022700    0.00013094   -0.00032404
     atom   12 type  1   force =    -0.00022722    0.00013106   -0.00032832
     atom   13 type  1   force =     0.00022707   -0.00013098    0.00031746
     atom   14 type  1   force =     0.00022722   -0.00013106    0.00032832
     atom   15 type  1   force =     0.00022700   -0.00013094    0.00032404

     Total force =     0.001113     Total SCF correction =     0.000218

     Total XDM Dispersion Force =     0.006216

     XDM Dispersion forces acting on atoms:
     atom    1 type  1   force =     0.00000000    0.00000000    0.00000000
     atom    2 type  1   force =     0.00000000    0.00000000   -0.00000007
     atom    3 type  1   force =     0.00000000    0.00000000    0.00000007
     atom    4 type  2   force =     0.00000243   -0.00000140   -0.00247647
     atom    5 type  2   force =     0.00000243   -0.00000140   -0.00247645
     atom    6 type  2   force =     0.00000243   -0.00000140   -0.00247646
     atom    7 type  2   force =    -0.00000243    0.00000140    0.00247647
     atom    8 type  2   force =    -0.00000243    0.00000140    0.00247646
     atom    9 type  2   force =    -0.00000243    0.00000140    0.00247645
     atom   10 type  1   force =     0.00000610   -0.00000352   -0.00055301
     atom   11 type  1   force =     0.00000610   -0.00000352   -0.00055301
     atom   12 type  1   force =     0.00000610   -0.00000352   -0.00055309
     atom   13 type  1   force =    -0.00000610    0.00000352    0.00055301
     atom   14 type  1   force =    -0.00000610    0.00000352    0.00055309
     atom   15 type  1   force =    -0.00000610    0.00000352    0.00055301
     SCF correction compared to forces is large: reduce conv_thr to get better values


     entering subroutine stress ...

          total   stress  (Ry/bohr**3)                   (kbar)     P=   -0.17
  -0.00000188  -0.00000002   0.00000000         -0.28      0.00      0.00
  -0.00000002  -0.00000190   0.00000000          0.00     -0.28      0.00
   0.00000000   0.00000000   0.00000027          0.00      0.00      0.04


     BFGS Geometry Optimization

     bfgs converged in   1 scf cycles and   0 bfgs steps
     (criteria: energy < 0.10E-03, force < 0.10E-02, cell < 0.50E+00)

     End of BFGS Geometry Optimization

     Final enthalpy =   -7168.3138028787 Ry
Begin final coordinates
     new unit-cell volume =   2867.52217 a.u.^3 (   424.92294 Ang^3 )

CELL_PARAMETERS (alat=  1.00000000)
   7.816870499   0.014752592  -0.013384422
  -3.895661350   6.776986975   0.013385624
  -0.062667751   0.036187859  54.071381561

ATOMIC_POSITIONS (crystal)
se       0.000000000   0.000000000   0.000000000
se       0.333333214   0.666666785   0.333333531
se       0.666666786   0.333333215   0.666666469
bi       0.999536743   1.000462729   0.400577649
bi       0.332870504   0.667128968   0.733910553
bi       0.666203612   0.333795859   0.067244246
bi       0.000463257  -0.000462729   0.599422351
bi       0.333796388   0.666204141   0.932755754
bi       0.667129496   0.332871032   0.266089447
se       0.000447670   0.999552851   0.210715595
se       0.333781277   0.666219248   0.544048793
se       0.667114522   0.332886004   0.877381997
se       0.999552330   0.000447149   0.789284405
se       0.332885478   0.667113996   0.122618003
se       0.666218723   0.333780752   0.455951207
End final coordinates



     A final scf calculation at the relaxed structure.
     The G-vectors are recalculated for the final unit cell
     Results may differ from those at the preceding step.
 
     Parallelization info
     --------------------
     sticks:   dense  smooth     PW     G-vecs:    dense   smooth      PW
     Min         316     127     37                88978    22499    3526
     Max         318     128     38                88993    22540    3533
     Sum        2531    1023    299               711867   180211   28229
 

     Title: 
     crystal                                                                    


     bravais-lattice index     =            0
     lattice parameter (alat)  =       1.0000  a.u.
     unit-cell volume          =    2867.5222 (a.u.)^3
     number of atoms/cell      =           15
     number of atomic types    =            2
     number of electrons       =       144.00
     number of Kohn-Sham states=           72
     kinetic-energy cutoff     =      60.0000  Ry
     charge density cutoff     =     600.0000  Ry
     convergence threshold     =      1.0E-08
     mixing beta               =       0.7000
     number of iterations used =            8  plain     mixing
     Exchange-correlation      =  SLA  PW   B86B PBC ( 1 418 4 0)
     EXX-fraction              =        0.00

     celldm(1)=   1.000000  celldm(2)=   0.000000  celldm(3)=   0.000000
     celldm(4)=   0.000000  celldm(5)=   0.000000  celldm(6)=   0.000000

     crystal axes: (cart. coord. in units of alat)
               a(1) = (   7.816870   0.014753  -0.013384 )  
               a(2) = (  -3.895661   6.776987   0.013386 )  
               a(3) = (  -0.062668   0.036188  54.071382 )  

     reciprocal axes: (cart. coord. in units 2 pi/alat)
               b(1) = (  0.127790  0.073458  0.000099 )  
               b(2) = ( -0.000278  0.147398 -0.000099 )  
               b(3) = (  0.000032 -0.000018  0.018494 )  


     PseudoPot. # 1 for Se read from file:
     ./se.UPF
     MD5 check sum: b3bf652973104d59ec74c383fb772ff0
     Pseudo is Projector augmented-wave + core cor, Zval =  6.0
     Generated using "atomic" code by A. Dal Corso  (Quantum ESPRESSO distribution)
     Shape of augmentation charge: PSQ
     Using radial grid of 1211 points,  4 beta functions with: 
                l(1) =   0
                l(2) =   0
                l(3) =   1
                l(4) =   1
     Q(r) pseudized with 0 coefficients 


     PseudoPot. # 2 for Bi read from file:
     ./bi.UPF
     MD5 check sum: 91f95544658e59ce26375ffdd66940af
     Pseudo is Projector augmented-wave + core cor, Zval = 15.0
     Generated using "atomic" code by A. Dal Corso  (Quantum ESPRESSO distribution)
     Shape of augmentation charge: PSQ
     Using radial grid of 1283 points,  6 beta functions with: 
                l(1) =   0
                l(2) =   0
                l(3) =   1
                l(4) =   1
                l(5) =   2
                l(6) =   2
     Q(r) pseudized with 0 coefficients 


     atomic species   valence    mass     pseudopotential
        se             6.00    78.96000     Se( 1.00)
        bi            15.00   208.98038     Bi( 1.00)

      2 Sym.Ops. (with inversion)


   Cartesian axes

     site n.     atom                  positions (alat units)
         1           se  tau(   1) = (   0.0000000   0.0000000   0.0000000  )
         2           se  tau(   2) = (  -0.0123747   4.5349723  18.0282668  )
         3           se  tau(   3) = (   3.8709161   2.2929552  36.0431159  )
         4           bi  tau(   4) = (   3.8906820   6.8093647  21.6598005  )
         5           bi  tau(   5) = (  -0.0428954   4.5525937  39.6880322  )
         6           bi  tau(   6) = (   3.9030577   2.2743918   3.6315406  )
         7           bi  tau(   7) = (  -0.0321406   0.0185627  32.4115823  )
         8           bi  tau(   8) = (  -0.0445163   4.5535356  50.4398422  )
         9           bi  tau(   9) = (   3.9014368   2.2753337  14.3833506  )
        10           se  tau(  10) = (  -3.9036251   6.7815886  11.4070570  )
        11           se  tau(  11) = (  -0.0203339   4.5395713  29.4219202  )
        12           se  tau(  12) = (   3.8629531   2.2975564  47.4367837  )
        13           se  tau(  13) = (   7.7621665   0.0463388  42.6643258  )
        14           se  tau(  14) = (  -0.0044117   4.5303711   6.6345991  )
        15           se  tau(  15) = (   3.8788753   2.2883562  24.6494626  )

     number of k points=    16
                       cart. coord. in units 2pi/alat
        k(    1) = (   0.0159469   0.0276025   0.0046235), wk =   0.1250000
        k(    2) = (   0.0159310   0.0276116  -0.0046235), wk =   0.1250000
        k(    3) = (   0.0158773   0.0644521   0.0045988), wk =   0.1250000
        k(    4) = (   0.0158614   0.0644612  -0.0046483), wk =   0.1250000
        k(    5) = (   0.0160861  -0.0460967   0.0046730), wk =   0.1250000
        k(    6) = (   0.0160702  -0.0460875  -0.0045740), wk =   0.1250000
        k(    7) = (   0.0160165  -0.0092471   0.0046483), wk =   0.1250000
        k(    8) = (   0.0160006  -0.0092379  -0.0045988), wk =   0.1250000
        k(    9) = (   0.0478944   0.0459670   0.0046483), wk =   0.1250000
        k(   10) = (   0.0478785   0.0459762  -0.0045988), wk =   0.1250000
        k(   11) = (   0.0478248   0.0828166   0.0046235), wk =   0.1250000
        k(   12) = (   0.0478089   0.0828258  -0.0046235), wk =   0.1250000
        k(   13) = (   0.0480335  -0.0277322   0.0046977), wk =   0.1250000
        k(   14) = (   0.0480177  -0.0277230  -0.0045493), wk =   0.1250000
        k(   15) = (   0.0479640   0.0091174   0.0046730), wk =   0.1250000
        k(   16) = (   0.0479481   0.0091266  -0.0045741), wk =   0.1250000

     Dense  grid:   711867 G-vectors     FFT dimensions: (  64,  64, 432)

     Smooth grid:   180211 G-vectors     FFT dimensions: (  40,  40, 270)

     Largest allocated arrays     est. size (Mb)     dimensions
        Kohn-Sham Wavefunctions         3.15 Mb     (   2866,   72)
        NL pseudopotentials             7.87 Mb     (   2866,  180)
        Each V/rho on FFT grid          3.38 Mb     ( 221184)
        Each G-vector array             0.68 Mb     (  88981)
        G-vector shells                 0.64 Mb     (  84513)
     Largest temporary arrays     est. size (Mb)     dimensions
        Auxiliary wavefunctions        12.59 Mb     (   2866,  288)
        Each subspace H/S matrix        1.27 Mb     ( 288, 288)
        Each <psi_i|beta_j> matrix      0.20 Mb     (    180,   72)
        Arrays for rho mixing          27.00 Mb     ( 221184,   8)

     Initial potential from superposition of free atoms

     starting charge  143.99453, renormalised to  144.00000
     Starting wfc are   90 atomic wfcs
     Checking if some PAW data can be deallocated... 

     Writing output data file crystal.save

     total cpu time spent up to now is     3828.1 secs

     per-process dynamical memory:   117.8 Mb

     Self-consistent Calculation

     iteration #  1     ecut=    60.00 Ry     beta=0.70
     Davidson diagonalization with overlap
     ethr =  1.00E-06,  avg # of iterations =  8.4

     total cpu time spent up to now is     4055.0 secs

     total energy              =   -7167.42320301 Ry
     Harris-Foulkes estimate   =   -7168.01768753 Ry
     estimated scf accuracy    <     862.05121929 Ry

     iteration #  2     ecut=    60.00 Ry     beta=0.70
     Davidson diagonalization with overlap
     ethr =  1.00E-02,  avg # of iterations =  2.1

     total cpu time spent up to now is     4187.6 secs

     total energy              =   -7162.57192991 Ry
     Harris-Foulkes estimate   =   -7168.57239379 Ry
     estimated scf accuracy    <      82.01190151 Ry

     iteration #  3     ecut=    60.00 Ry     beta=0.70
     Davidson diagonalization with overlap
     ethr =  1.00E-02,  avg # of iterations =  6.9

     total cpu time spent up to now is     4370.9 secs

     total energy              =   -7143.54357858 Ry
     Harris-Foulkes estimate   =   -7198.80140574 Ry
     estimated scf accuracy    <     234.91753456 Ry

     iteration #  4     ecut=    60.00 Ry     beta=0.70
     Davidson diagonalization with overlap
     ethr =  1.00E-02,  avg # of iterations =  5.8

     total cpu time spent up to now is     4558.6 secs

     total energy              =   -7167.58475374 Ry
     Harris-Foulkes estimate   =   -7168.41816583 Ry
     estimated scf accuracy    <       2.36538674 Ry

     iteration #  5     ecut=    60.00 Ry     beta=0.70
     Davidson diagonalization with overlap
     ethr =  1.64E-03,  avg # of iterations =  2.1

     total cpu time spent up to now is     4694.5 secs

     total energy              =   -7167.82693573 Ry
     Harris-Foulkes estimate   =   -7167.84822982 Ry
     estimated scf accuracy    <       0.23271432 Ry

     iteration #  6     ecut=    60.00 Ry     beta=0.70
     Davidson diagonalization with overlap
     ethr =  1.62E-04,  avg # of iterations =  3.4

     total cpu time spent up to now is     4830.0 secs

     total energy              =   -7167.83632329 Ry
     Harris-Foulkes estimate   =   -7167.84874970 Ry
     estimated scf accuracy    <       0.13651318 Ry

     iteration #  7     ecut=    60.00 Ry     beta=0.70
     Davidson diagonalization with overlap
     ethr =  9.48E-05,  avg # of iterations =  1.6

     total cpu time spent up to now is     4956.5 secs

     total energy              =   -7167.83563343 Ry
     Harris-Foulkes estimate   =   -7167.84007441 Ry
     estimated scf accuracy    <       0.07744894 Ry

     iteration #  8     ecut=    60.00 Ry     beta=0.70
     Davidson diagonalization with overlap
     ethr =  5.38E-05,  avg # of iterations =  2.6

     total cpu time spent up to now is     5085.7 secs

     total energy              =   -7167.83577856 Ry
     Harris-Foulkes estimate   =   -7167.83808031 Ry
     estimated scf accuracy    <       0.04954598 Ry

     iteration #  9     ecut=    60.00 Ry     beta=0.70
     Davidson diagonalization with overlap
     ethr =  3.44E-05,  avg # of iterations =  2.0

     total cpu time spent up to now is     5214.1 secs

     total energy              =   -7167.83333576 Ry
     Harris-Foulkes estimate   =   -7167.83728674 Ry
     estimated scf accuracy    <       0.03528052 Ry

     iteration # 10     ecut=    60.00 Ry     beta=0.70
     Davidson diagonalization with overlap
     ethr =  2.45E-05,  avg # of iterations =  2.0

     total cpu time spent up to now is     5342.8 secs

     total energy              =   -7167.83191567 Ry
     Harris-Foulkes estimate   =   -7167.83467597 Ry
     estimated scf accuracy    <       0.01605923 Ry

     iteration # 11     ecut=    60.00 Ry     beta=0.70
     Davidson diagonalization with overlap
     ethr =  1.12E-05,  avg # of iterations =  3.1

     total cpu time spent up to now is     5485.3 secs

     total energy              =   -7167.83445250 Ry
     Harris-Foulkes estimate   =   -7167.83444413 Ry
     estimated scf accuracy    <       0.00719612 Ry

     iteration # 12     ecut=    60.00 Ry     beta=0.70
     Davidson diagonalization with overlap
     ethr =  5.00E-06,  avg # of iterations =  1.2

     total cpu time spent up to now is     5611.6 secs

     total energy              =   -7167.83409782 Ry
     Harris-Foulkes estimate   =   -7167.83453908 Ry
     estimated scf accuracy    <       0.00755774 Ry

     iteration # 13     ecut=    60.00 Ry     beta=0.70
     Davidson diagonalization with overlap
     ethr =  5.00E-06,  avg # of iterations =  1.4

     total cpu time spent up to now is     5738.9 secs

     total energy              =   -7167.83390810 Ry
     Harris-Foulkes estimate   =   -7167.83429434 Ry
     estimated scf accuracy    <       0.00413833 Ry

     iteration # 14     ecut=    60.00 Ry     beta=0.70
     Davidson diagonalization with overlap
     ethr =  2.87E-06,  avg # of iterations =  3.2

     total cpu time spent up to now is     5872.3 secs

     total energy              =   -7167.83406468 Ry
     Harris-Foulkes estimate   =   -7167.83409475 Ry
     estimated scf accuracy    <       0.00053257 Ry

     iteration # 15     ecut=    60.00 Ry     beta=0.70
     Davidson diagonalization with overlap
     ethr =  3.70E-07,  avg # of iterations =  3.6

     total cpu time spent up to now is     6008.4 secs

     total energy              =   -7167.83406168 Ry
     Harris-Foulkes estimate   =   -7167.83410319 Ry
     estimated scf accuracy    <       0.00026784 Ry

     iteration # 16     ecut=    60.00 Ry     beta=0.70
     Davidson diagonalization with overlap
     ethr =  1.86E-07,  avg # of iterations =  2.9

     total cpu time spent up to now is     6144.7 secs

     total energy              =   -7167.83408469 Ry
     Harris-Foulkes estimate   =   -7167.83408620 Ry
     estimated scf accuracy    <       0.00000852 Ry

     iteration # 17     ecut=    60.00 Ry     beta=0.70
     Davidson diagonalization with overlap
     ethr =  5.91E-09,  avg # of iterations =  4.1

     total cpu time spent up to now is     6291.6 secs

     total energy              =   -7167.83408582 Ry
     Harris-Foulkes estimate   =   -7167.83408727 Ry
     estimated scf accuracy    <       0.00001717 Ry

     iteration # 18     ecut=    60.00 Ry     beta=0.70
     Davidson diagonalization with overlap
     ethr =  5.91E-09,  avg # of iterations =  2.3

     total cpu time spent up to now is     6424.0 secs

     total energy              =   -7167.83408569 Ry
     Harris-Foulkes estimate   =   -7167.83408630 Ry
     estimated scf accuracy    <       0.00000642 Ry

     iteration # 19     ecut=    60.00 Ry     beta=0.70
     Davidson diagonalization with overlap
     ethr =  4.46E-09,  avg # of iterations =  3.2

     total cpu time spent up to now is     6558.5 secs

     total energy              =   -7167.83408598 Ry
     Harris-Foulkes estimate   =   -7167.83408607 Ry
     estimated scf accuracy    <       0.00000040 Ry

     iteration # 20     ecut=    60.00 Ry     beta=0.70
     Davidson diagonalization with overlap
     ethr =  2.75E-10,  avg # of iterations =  3.7

     total cpu time spent up to now is     6705.5 secs

     total energy              =   -7167.83408601 Ry
     Harris-Foulkes estimate   =   -7167.83408611 Ry
     estimated scf accuracy    <       0.00000037 Ry

     iteration # 21     ecut=    60.00 Ry     beta=0.70
     Davidson diagonalization with overlap
     ethr =  2.55E-10,  avg # of iterations =  3.2

     total cpu time spent up to now is     6846.5 secs

     total energy              =   -7167.83408605 Ry
     Harris-Foulkes estimate   =   -7167.83408608 Ry
     estimated scf accuracy    <       0.00000015 Ry

     iteration # 22     ecut=    60.00 Ry     beta=0.70
     Davidson diagonalization with overlap
     ethr =  1.01E-10,  avg # of iterations =  3.1

     total cpu time spent up to now is     6987.6 secs

     total energy              =   -7167.83408606 Ry
     Harris-Foulkes estimate   =   -7167.83408607 Ry
     estimated scf accuracy    <       0.00000004 Ry

     iteration # 23     ecut=    60.00 Ry     beta=0.70
     Davidson diagonalization with overlap
     ethr =  2.96E-11,  avg # of iterations =  2.1

     total cpu time spent up to now is     7124.5 secs

     total energy              =   -7167.83408606 Ry
     Harris-Foulkes estimate   =   -7167.83408606 Ry
     estimated scf accuracy    <       0.00000001 Ry

     iteration # 24     ecut=    60.00 Ry     beta=0.70
     Davidson diagonalization with overlap
     ethr =  7.31E-12,  avg # of iterations =  3.2

     total cpu time spent up to now is     7260.1 secs

     End of self-consistent calculation

          k = 0.0159 0.0276 0.0046 ( 22523 PWs)   bands (ev):

   -15.3567 -15.3567 -15.3567 -15.3543 -15.3542 -15.3542 -15.3456 -15.3456
   -15.3456 -15.3451 -15.3451 -15.3451 -15.3407 -15.3407 -15.3406 -15.3403
   -15.3402 -15.3401 -15.3364 -15.3363 -15.3363 -15.3355 -15.3354 -15.3354
   -15.3324 -15.3323 -15.3323 -15.3287 -15.3287 -15.3287  -6.2174  -6.1677
    -6.0900  -5.8006  -5.6508  -5.5030  -4.8556  -4.7199  -4.6074  -2.3077
    -2.1988  -2.0699  -1.5309  -1.4399  -1.3717   3.9013   3.9930   4.1653
     4.2777   4.3348   4.3458   4.6097   4.7918   4.9185   5.1922   5.3293
     5.4561   5.4793   5.5009   5.6514   5.7122   5.8351   5.9163   6.1984
     6.5378   6.7845   6.8355   6.9811   6.9906   7.1514   7.1767   7.3014

          k = 0.0159 0.0276-0.0046 ( 22523 PWs)   bands (ev):

   -15.3567 -15.3567 -15.3567 -15.3543 -15.3542 -15.3542 -15.3456 -15.3456
   -15.3456 -15.3451 -15.3451 -15.3451 -15.3407 -15.3407 -15.3406 -15.3403
   -15.3402 -15.3401 -15.3364 -15.3363 -15.3363 -15.3355 -15.3354 -15.3354
   -15.3324 -15.3323 -15.3323 -15.3287 -15.3287 -15.3287  -6.2174  -6.1677
    -6.0900  -5.8006  -5.6508  -5.5030  -4.8556  -4.7199  -4.6074  -2.3077
    -2.1988  -2.0699  -1.5309  -1.4399  -1.3717   3.9013   3.9930   4.1653
     4.2777   4.3348   4.3458   4.6097   4.7918   4.9185   5.1922   5.3293
     5.4561   5.4793   5.5009   5.6514   5.7122   5.8351   5.9163   6.1984
     6.5378   6.7845   6.8355   6.9811   6.9906   7.1514   7.1767   7.3014

          k = 0.0159 0.0645 0.0046 ( 22492 PWs)   bands (ev):

   -15.3666 -15.3665 -15.3664 -15.3619 -15.3619 -15.3618 -15.3468 -15.3468
   -15.3468 -15.3436 -15.3435 -15.3435 -15.3417 -15.3417 -15.3416 -15.3378
   -15.3377 -15.3377 -15.3287 -15.3287 -15.3286 -15.3265 -15.3264 -15.3264
   -15.3253 -15.3252 -15.3252 -15.3228 -15.3228 -15.3227  -5.0672  -5.0663
    -4.9857  -4.9043  -4.7848  -4.7468  -4.6292  -4.5844  -4.5579  -2.9539
    -2.9502  -2.8897  -2.6198  -2.5688  -2.5587   2.5144   2.6841   2.7837
     3.6580   3.7225   3.7593   3.8287   3.9132   3.9646   4.1030   4.3797
     4.4297   4.5177   4.9826   5.0184   5.0905   5.2810   5.5448   5.6268
     6.1255   6.1663   6.2745   6.5385   6.8019   6.9391   7.0476   7.0608

          k = 0.0159 0.0645-0.0046 ( 22499 PWs)   bands (ev):

   -15.3666 -15.3665 -15.3664 -15.3619 -15.3618 -15.3618 -15.3468 -15.3468
   -15.3468 -15.3436 -15.3435 -15.3435 -15.3417 -15.3416 -15.3416 -15.3378
   -15.3377 -15.3377 -15.3287 -15.3286 -15.3286 -15.3265 -15.3264 -15.3264
   -15.3253 -15.3252 -15.3252 -15.3228 -15.3227 -15.3227  -5.0818  -5.0257
    -5.0246  -4.8615  -4.8375  -4.7174  -4.6374  -4.5848  -4.5561  -2.9692
    -2.9157  -2.9101  -2.6047  -2.5928  -2.5487   2.5423   2.6077   2.8509
     3.5485   3.6810   3.7984   3.8761   3.9755   4.0283   4.1349   4.2607
     4.4004   4.6357   4.7244   5.0204   5.2884   5.3104   5.5056   5.7708
     5.9120   6.0532   6.4708   6.5866   6.7807   6.7855   7.0195   7.2059

          k = 0.0161-0.0461 0.0047 ( 22514 PWs)   bands (ev):

   -15.3626 -15.3625 -15.3625 -15.3590 -15.3589 -15.3589 -15.3443 -15.3442
   -15.3442 -15.3428 -15.3428 -15.3428 -15.3407 -15.3406 -15.3406 -15.3392
   -15.3392 -15.3392 -15.3346 -15.3345 -15.3345 -15.3310 -15.3310 -15.3310
   -15.3275 -15.3274 -15.3274 -15.3256 -15.3256 -15.3256  -5.7085  -5.6575
    -5.5985  -5.3435  -5.2405  -5.0826  -4.6810  -4.5470  -4.4993  -2.5303
    -2.4881  -2.4324  -2.1153  -2.0904  -2.0438   3.0617   3.1149   3.3706
     3.6528   3.7720   4.0143   4.0928   4.3692   4.4703   4.5221   4.6790
     4.7165   4.8386   5.1549   5.2015   5.3143   5.5772   5.8491   6.1271
     6.1685   6.2829   6.5437   6.5601   7.0051   7.0667   7.0921   7.1664

          k = 0.0161-0.0461-0.0046 ( 22512 PWs)   bands (ev):

   -15.3626 -15.3625 -15.3625 -15.3590 -15.3589 -15.3589 -15.3443 -15.3442
   -15.3442 -15.3428 -15.3428 -15.3428 -15.3407 -15.3406 -15.3406 -15.3392
   -15.3392 -15.3392 -15.3346 -15.3345 -15.3345 -15.3310 -15.3310 -15.3310
   -15.3275 -15.3274 -15.3274 -15.3256 -15.3256 -15.3256  -5.7049  -5.6678
    -5.5880  -5.3631  -5.2061  -5.1057  -4.6538  -4.5870  -4.4820  -2.5335
    -2.4843  -2.4323  -2.1270  -2.0706  -2.0527   3.0312   3.1938   3.2966
     3.6512   3.8669   3.9259   4.1153   4.3654   4.5234   4.5383   4.5736
     4.7653   4.8395   4.9766   5.3682   5.4007   5.6255   5.8227   5.9269
     6.0240   6.4839   6.6026   6.6865   6.8700   7.0061   7.1012   7.1948

          k = 0.0160-0.0092 0.0046 ( 22580 PWs)   bands (ev):

   -15.3558 -15.3557 -15.3557 -15.3536 -15.3536 -15.3536 -15.3490 -15.3490
   -15.3490 -15.3475 -15.3474 -15.3474 -15.3427 -15.3426 -15.3425 -15.3404
   -15.3402 -15.3402 -15.3350 -15.3350 -15.3349 -15.3345 -15.3345 -15.3345
   -15.3318 -15.3317 -15.3317 -15.3314 -15.3313 -15.3313  -6.4872  -6.4367
    -6.3549  -6.0487  -5.8889  -5.7397  -4.9872  -4.8420  -4.7089  -2.2554
    -2.0871  -1.9149  -1.1717  -1.0412  -0.9141   4.6781   4.7586   4.8071
     4.9040   5.0618   5.0804   5.4219   5.4412   5.4597   5.5272   5.5757
     5.5797   5.7563   5.8620   5.9492   6.0046   6.0708   6.4370   6.5197
     6.5875   6.6612   6.7503   6.9041   7.0300   7.1736   7.4001   7.4400

          k = 0.0160-0.0092-0.0046 ( 22561 PWs)   bands (ev):

   -15.3558 -15.3557 -15.3557 -15.3536 -15.3536 -15.3536 -15.3490 -15.3490
   -15.3490 -15.3475 -15.3474 -15.3474 -15.3427 -15.3426 -15.3425 -15.3403
   -15.3403 -15.3401 -15.3350 -15.3350 -15.3349 -15.3345 -15.3345 -15.3345
   -15.3318 -15.3317 -15.3317 -15.3313 -15.3313 -15.3313  -6.4878  -6.4351
    -6.3565  -6.0459  -5.8937  -5.7368  -4.9908  -4.8359  -4.7117  -2.2476
    -2.1060  -1.9014  -1.1870  -1.0191  -0.9234   4.6846   4.7282   4.8639
     4.9067   4.9562   5.1645   5.4259   5.4324   5.4945   5.5006   5.5361
     5.6037   5.7668   5.7996   5.8999   6.0921   6.1772   6.3641   6.4473
     6.5619   6.6753   6.7508   7.0603   7.0871   7.1254   7.1838   7.5619

          k = 0.0479 0.0460 0.0046 ( 22499 PWs)   bands (ev):

   -15.3666 -15.3665 -15.3664 -15.3619 -15.3618 -15.3618 -15.3468 -15.3468
   -15.3468 -15.3436 -15.3435 -15.3435 -15.3417 -15.3417 -15.3416 -15.3378
   -15.3377 -15.3377 -15.3287 -15.3286 -15.3286 -15.3265 -15.3264 -15.3264
   -15.3253 -15.3252 -15.3252 -15.3228 -15.3227 -15.3227  -5.0818  -5.0257
    -5.0246  -4.8615  -4.8375  -4.7174  -4.6374  -4.5848  -4.5561  -2.9692
    -2.9157  -2.9101  -2.6047  -2.5928  -2.5487   2.5423   2.6077   2.8509
     3.5485   3.6810   3.7984   3.8761   3.9755   4.0283   4.1349   4.2607
     4.4004   4.6357   4.7244   5.0204   5.2884   5.3104   5.5056   5.7708
     5.9120   6.0532   6.4708   6.5866   6.7807   6.7855   7.0195   7.2059

          k = 0.0479 0.0460-0.0046 ( 22492 PWs)   bands (ev):

   -15.3666 -15.3665 -15.3664 -15.3619 -15.3619 -15.3618 -15.3468 -15.3468
   -15.3468 -15.3436 -15.3435 -15.3435 -15.3417 -15.3417 -15.3416 -15.3378
   -15.3377 -15.3377 -15.3287 -15.3287 -15.3286 -15.3265 -15.3264 -15.3264
   -15.3253 -15.3252 -15.3252 -15.3228 -15.3228 -15.3227  -5.0672  -5.0663
    -4.9857  -4.9043  -4.7848  -4.7468  -4.6292  -4.5844  -4.5579  -2.9539
    -2.9502  -2.8897  -2.6198  -2.5688  -2.5587   2.5144   2.6841   2.7837
     3.6580   3.7225   3.7593   3.8287   3.9132   3.9646   4.1030   4.3797
     4.4297   4.5177   4.9826   5.0184   5.0905   5.2810   5.5448   5.6268
     6.1255   6.1663   6.2745   6.5385   6.8019   6.9391   7.0476   7.0607

          k = 0.0478 0.0828 0.0046 ( 22436 PWs)   bands (ev):

   -15.3612 -15.3611 -15.3610 -15.3583 -15.3583 -15.3583 -15.3489 -15.3488
   -15.3488 -15.3413 -15.3413 -15.3412 -15.3388 -15.3388 -15.3387 -15.3358
   -15.3357 -15.3357 -15.3315 -15.3315 -15.3315 -15.3310 -15.3310 -15.3310
   -15.3268 -15.3267 -15.3266 -15.3253 -15.3252 -15.3251  -4.6863  -4.6784
    -4.6644  -4.6411  -4.6211  -4.6045  -4.5623  -4.5528  -4.5461  -3.0683
    -3.0674  -3.0664  -2.9562  -2.9522  -2.9482   2.7078   2.8135   2.9633
     3.2759   3.2908   3.3467   3.4650   3.6536   3.6717   3.7447   3.9961
     4.3242   4.4180   4.4655   4.8041   4.8204   5.2165   5.2458   5.6709
     5.9404   6.3294   6.3510   6.4878   6.7353   6.8383   7.0923   7.1672

          k = 0.0478 0.0828-0.0046 ( 22436 PWs)   bands (ev):

   -15.3612 -15.3611 -15.3610 -15.3583 -15.3583 -15.3583 -15.3489 -15.3488
   -15.3488 -15.3413 -15.3413 -15.3412 -15.3388 -15.3388 -15.3387 -15.3358
   -15.3357 -15.3357 -15.3315 -15.3315 -15.3315 -15.3310 -15.3310 -15.3310
   -15.3268 -15.3267 -15.3266 -15.3253 -15.3252 -15.3251  -4.6863  -4.6784
    -4.6644  -4.6411  -4.6211  -4.6045  -4.5623  -4.5528  -4.5461  -3.0683
    -3.0674  -3.0664  -2.9562  -2.9522  -2.9482   2.7078   2.8135   2.9633
     3.2759   3.2908   3.3467   3.4650   3.6536   3.6717   3.7447   3.9961
     4.3242   4.4180   4.4655   4.8041   4.8204   5.2165   5.2458   5.6709
     5.9404   6.3294   6.3510   6.4878   6.7353   6.8383   7.0923   7.1672

          k = 0.0480-0.0277 0.0047 ( 22482 PWs)   bands (ev):

   -15.3696 -15.3695 -15.3694 -15.3651 -15.3651 -15.3650 -15.3452 -15.3452
   -15.3451 -15.3403 -15.3402 -15.3402 -15.3399 -15.3399 -15.3398 -15.3355
   -15.3355 -15.3354 -15.3287 -15.3286 -15.3286 -15.3275 -15.3275 -15.3275
   -15.3268 -15.3267 -15.3267 -15.3257 -15.3257 -15.3256  -5.4680  -5.4529
    -5.3588  -5.1948  -5.0019  -4.9901  -4.6208  -4.5996  -4.5043  -2.7364
    -2.6555  -2.6508  -2.2674  -2.2452  -2.1795   2.6734   2.6771   2.9798
     3.5140   3.9412   4.1672   4.3822   4.4356   4.4534   4.4605   4.5359
     4.5770   5.0345   5.1115   5.1225   5.1917   5.4223   5.6746   5.9444
     6.0695   6.1626   6.4064   6.4795   6.5329   6.6727   7.1057   7.1381

          k = 0.0480-0.0277-0.0045 ( 22480 PWs)   bands (ev):

   -15.3696 -15.3695 -15.3694 -15.3651 -15.3650 -15.3650 -15.3453 -15.3452
   -15.3452 -15.3403 -15.3403 -15.3402 -15.3399 -15.3399 -15.3398 -15.3355
   -15.3355 -15.3354 -15.3287 -15.3286 -15.3286 -15.3275 -15.3275 -15.3275
   -15.3268 -15.3267 -15.3267 -15.3258 -15.3257 -15.3256  -5.4807  -5.4169
    -5.3937  -5.1323  -5.1103  -4.9216  -4.6674  -4.5438  -4.5244  -2.7152
    -2.7077  -2.6170  -2.2902  -2.2123  -2.1925   2.6147   2.8399   2.8402
     3.6893   3.7856   4.0771   4.3507   4.4555   4.4810   4.4904   4.6270
     4.6578   4.9498   4.9703   5.2565   5.3023   5.3339   5.5376   5.8883
     6.2595   6.2850   6.3274   6.4348   6.6017   6.6605   6.8386   7.3228

          k = 0.0480 0.0091 0.0047 ( 22514 PWs)   bands (ev):

   -15.3626 -15.3625 -15.3625 -15.3590 -15.3589 -15.3589 -15.3443 -15.3442
   -15.3442 -15.3428 -15.3428 -15.3428 -15.3407 -15.3406 -15.3406 -15.3392
   -15.3392 -15.3392 -15.3346 -15.3345 -15.3345 -15.3310 -15.3310 -15.3310
   -15.3275 -15.3274 -15.3274 -15.3256 -15.3256 -15.3256  -5.7085  -5.6575
    -5.5985  -5.3435  -5.2405  -5.0826  -4.6810  -4.5470  -4.4993  -2.5303
    -2.4881  -2.4324  -2.1153  -2.0904  -2.0438   3.0617   3.1149   3.3706
     3.6528   3.7720   4.0143   4.0928   4.3692   4.4703   4.5221   4.6790
     4.7165   4.8386   5.1549   5.2015   5.3143   5.5772   5.8491   6.1271
     6.1685   6.2829   6.5437   6.5601   7.0051   7.0667   7.0921   7.1663

          k = 0.0479 0.0091-0.0046 ( 22512 PWs)   bands (ev):

   -15.3626 -15.3625 -15.3625 -15.3590 -15.3589 -15.3589 -15.3443 -15.3442
   -15.3442 -15.3428 -15.3428 -15.3428 -15.3407 -15.3406 -15.3406 -15.3392
   -15.3392 -15.3392 -15.3346 -15.3345 -15.3345 -15.3310 -15.3310 -15.3310
   -15.3275 -15.3274 -15.3274 -15.3256 -15.3256 -15.3256  -5.7049  -5.6678
    -5.5880  -5.3631  -5.2061  -5.1057  -4.6538  -4.5870  -4.4820  -2.5335
    -2.4843  -2.4323  -2.1270  -2.0706  -2.0527   3.0312   3.1938   3.2966
     3.6512   3.8669   3.9259   4.1153   4.3654   4.5234   4.5383   4.5736
     4.7653   4.8395   4.9766   5.3682   5.4007   5.6255   5.8227   5.9269
     6.0240   6.4839   6.6026   6.6865   6.8700   7.0061   7.1012   7.1948

* XDM dispersion
  a1 =     0.608200
  a2 (ang) =     1.583400
  a2 (bohr) =     2.992192
 
+ Volumes and moments
# All results in atomic units.
# i          V                 Vfree               M1                 M2                 M3
  1   9.8537425433E+01   9.9199264526E+01   8.3851249612E+00   1.6170571639E+02   3.1327354493E+03
  2   9.8537391567E+01   9.9199264526E+01   8.3852764626E+00   1.6170537886E+02   3.1327290010E+03
  3   9.8537391567E+01   9.9199264526E+01   8.3852764626E+00   1.6170537886E+02   3.1327290010E+03
  4   1.8544305291E+02   1.9459034729E+02   1.2949020985E+01   2.8821962710E+02   8.0885287202E+03
  5   1.8544333824E+02   1.9459034729E+02   1.2949304753E+01   2.8821993356E+02   8.0885332314E+03
  6   1.8544370532E+02   1.9459034729E+02   1.2949309200E+01   2.8822011367E+02   8.0885406335E+03
[...]
  7   2   1.7979917939E+02   1.1203952137E+04   6.8310503183E+05   7.8510771375E+00   7.7672174738E+00
  7   3   1.7979917939E+02   1.1203952137E+04   6.8310503183E+05   7.8510771375E+00   7.7672174738E+00
  7   4   3.0812330019E+02   2.0574647949E+04   1.4110009534E+06   8.2263490323E+00   7.9954578403E+00
  7   5   3.0812691335E+02   2.0574674716E+04   1.4109959104E+06   8.2263176167E+00   7.9954387333E+00
  7   6   3.0812727122E+02   2.0574701508E+04   1.4109979497E+06   8.2263182005E+00   7.9954390884E+00
  7   7   3.0812330019E+02   2.0574647949E+04   1.4110009534E+06   8.2263490323E+00   7.9954578403E+00
  8   1   1.7980023343E+02   1.1203999170E+04   6.8310693741E+05   7.8510711046E+00   7.7672138046E+00
  8   2   1.7980166319E+02   1.1203983434E+04   6.8310313247E+05   7.8510445272E+00   7.7671976403E+00
  8   3   1.7980166319E+02   1.1203983434E+04   6.8310313247E+05   7.8510445272E+00   7.7671976403E+00
  8   4   3.0812727122E+02   2.0574701508E+04   1.4109979497E+06   8.2263182005E+00   7.9954390884E+00
  8   5   3.0813088446E+02   2.0574728275E+04   1.4109929069E+06   8.2262867849E+00   7.9954199814E+00
  8   6   3.0813124233E+02   2.0574755067E+04   1.4109949462E+06   8.2262873688E+00   7.9954203365E+00
  8   7   3.0812727122E+02   2.0574701508E+04   1.4109979497E+06   8.2263182005E+00   7.9954390884E+00
  8   8   3.0813124233E+02   2.0574755067E+04   1.4109949462E+06   8.2262873688E+00   7.9954203365E+00
  9   1   1.7980003915E+02   1.1203985373E+04   6.8310597960E+05   7.8510704736E+00   7.7672134209E+00
  9   2   1.7980146890E+02   1.1203969638E+04   6.8310217468E+05   7.8510438962E+00   7.7671972565E+00
  9   3   1.7980146890E+02   1.1203969638E+04   6.8310217468E+05   7.8510438962E+00   7.7671972565E+00
  9   4   3.0812691335E+02   2.0574674716E+04   1.4109959104E+06   8.2263176167E+00   7.9954387333E+00
  9   5   3.0813052658E+02   2.0574701483E+04   1.4109908675E+06   8.2262862011E+00   7.9954196263E+00
  9   6   3.0813088446E+02   2.0574728275E+04   1.4109929069E+06   8.2262867849E+00   7.9954199814E+00
  9   7   3.0812691335E+02   2.0574674716E+04   1.4109959104E+06   8.2263176167E+00   7.9954387333E+00
  9   8   3.0813088446E+02   2.0574728275E+04   1.4109929069E+06   8.2262867849E+00   7.9954199814E+00
  9   9   3.0813052658E+02   2.0574701483E+04   1.4109908675E+06   8.2262862011E+00   7.9954196263E+00
 10   1   1.0935629792E+02   6.2953597718E+03   3.3175989839E+05   7.4227640742E+00   7.5067174687E+00
 10   2   1.0935730874E+02   6.2953542044E+03   3.3175791183E+05   7.4227356724E+00   7.5067001947E+00
 10   3   1.0935730874E+02   6.2953542044E+03   3.3175791183E+05   7.4227356724E+00   7.5067001947E+00
 10   4   1.8481728526E+02   1.1463700402E+04   6.9754763140E+05   7.8381063456E+00   7.7593286382E+00
 10   5   1.8481971558E+02   1.1463722488E+04   6.9754499471E+05   7.8380731369E+00   7.7593084407E+00
 10   6   1.8481990911E+02   1.1463736230E+04   6.9754595000E+05   7.8380737685E+00   7.7593088248E+00
 10   7   1.8481728526E+02   1.1463700402E+04   6.9754763140E+05   7.8381063456E+00   7.7593286382E+00
 10   8   1.8481990911E+02   1.1463736230E+04   6.9754595000E+05   7.8380737685E+00   7.7593088248E+00
 10   9   1.8481971558E+02   1.1463722488E+04   6.9754499471E+05   7.8380731369E+00   7.7593084407E+00
 10  10   1.1306373249E+02   6.4763295557E+03   3.4046125619E+05   7.4088826248E+00   7.4982747712E+00
 11   1   1.0935518198E+02   6.2953692451E+03   3.3176240333E+05   7.4227971771E+00   7.5067376019E+00
 11   2   1.0935619278E+02   6.2953636777E+03   3.3176041672E+05   7.4227687752E+00   7.5067203279E+00
 11   3   1.0935619278E+02   6.2953636777E+03   3.3176041672E+05   7.4227687752E+00   7.5067203279E+00
 11   4   1.8481564118E+02   1.1463723007E+04   6.9755241850E+05   7.8381372622E+00   7.7593474417E+00
 11   5   1.8481807146E+02   1.1463745093E+04   6.9754978173E+05   7.8381040534E+00   7.7593272441E+00
 11   6   1.8481826499E+02   1.1463758835E+04   6.9755073703E+05   7.8381046850E+00   7.7593276282E+00
 11   7   1.8481564118E+02   1.1463723007E+04   6.9755241850E+05   7.8381372622E+00   7.7593474417E+00
 11   8   1.8481826499E+02   1.1463758835E+04   6.9755073703E+05   7.8381046850E+00   7.7593276282E+00
 11   9   1.8481807146E+02   1.1463745093E+04   6.9754978173E+05   7.8381040534E+00   7.7593272441E+00
 11  10   1.1306251635E+02   6.4763361086E+03   3.4046364338E+05   7.4089156878E+00   7.4982948802E+00
 11  11   1.1306130023E+02   6.4763426618E+03   3.4046603062E+05   7.4089487509E+00   7.4983149891E+00
 12   1   1.0935486124E+02   6.2953647531E+03   3.3176255891E+05   7.4228035185E+00   7.5067414587E+00
 12   2   1.0935587203E+02   6.2953591858E+03   3.3176057230E+05   7.4227751165E+00   7.5067241847E+00
 12   3   1.0935587203E+02   6.2953591858E+03   3.3176057230E+05   7.4227751165E+00   7.5067241847E+00
 12   4   1.8481512370E+02   1.1463714523E+04   6.9755256941E+05   7.8381431798E+00   7.7593510408E+00
 12   5   1.8481755396E+02   1.1463736609E+04   6.9754993263E+05   7.8381099710E+00   7.7593308432E+00
 12   6   1.8481774750E+02   1.1463750351E+04   6.9755088794E+05   7.8381106025E+00   7.7593312273E+00
 12   7   1.8481512370E+02   1.1463714523E+04   6.9755256941E+05   7.8381431798E+00   7.7593510408E+00
 12   8   1.8481774750E+02   1.1463750351E+04   6.9755088794E+05   7.8381106025E+00   7.7593312273E+00
 12   9   1.8481755396E+02   1.1463736609E+04   6.9754993263E+05   7.8381099710E+00   7.7593308432E+00
 12  10   1.1306217839E+02   6.4763311965E+03   3.4046378487E+05   7.4089220221E+00   7.4982987326E+00
 12  11   1.1306096228E+02   6.4763377496E+03   3.4046617212E+05   7.4089550852E+00   7.4983188416E+00
 12  12   1.1306062434E+02   6.4763328374E+03   3.4046631362E+05   7.4089614195E+00   7.4983226941E+00
 13   1   1.0935629792E+02   6.2953597718E+03   3.3175989839E+05   7.4227640742E+00   7.5067174687E+00
 13   2   1.0935730874E+02   6.2953542044E+03   3.3175791183E+05   7.4227356724E+00   7.5067001947E+00
 13   3   1.0935730874E+02   6.2953542044E+03   3.3175791183E+05   7.4227356724E+00   7.5067001947E+00
 13   4   1.8481728526E+02   1.1463700402E+04   6.9754763140E+05   7.8381063456E+00   7.7593286382E+00
 13   5   1.8481971558E+02   1.1463722488E+04   6.9754499471E+05   7.8380731369E+00   7.7593084407E+00
 13   6   1.8481990911E+02   1.1463736230E+04   6.9754595000E+05   7.8380737685E+00   7.7593088248E+00
 13   7   1.8481728526E+02   1.1463700402E+04   6.9754763140E+05   7.8381063456E+00   7.7593286382E+00
 13   8   1.8481990911E+02   1.1463736230E+04   6.9754595000E+05   7.8380737685E+00   7.7593088248E+00
 13   9   1.8481971558E+02   1.1463722488E+04   6.9754499471E+05   7.8380731369E+00   7.7593084407E+00
 13  10   1.1306373249E+02   6.4763295557E+03   3.4046125619E+05   7.4088826248E+00   7.4982747712E+00
 13  11   1.1306251635E+02   6.4763361086E+03   3.4046364338E+05   7.4089156878E+00   7.4982948802E+00
 13  12   1.1306217839E+02   6.4763311965E+03   3.4046378487E+05   7.4089220221E+00   7.4982987326E+00
 13  13   1.1306373249E+02   6.4763295557E+03   3.4046125619E+05   7.4088826248E+00   7.4982747712E+00
 14   1   1.0935486124E+02   6.2953647531E+03   3.3176255891E+05   7.4228035185E+00   7.5067414587E+00
 14   2   1.0935587203E+02   6.2953591858E+03   3.3176057230E+05   7.4227751165E+00   7.5067241847E+00
 14   3   1.0935587203E+02   6.2953591858E+03   3.3176057230E+05   7.4227751165E+00   7.5067241847E+00
 14   4   1.8481512370E+02   1.1463714523E+04   6.9755256941E+05   7.8381431798E+00   7.7593510408E+00
 14   5   1.8481755396E+02   1.1463736609E+04   6.9754993263E+05   7.8381099710E+00   7.7593308432E+00
 14   6   1.8481774750E+02   1.1463750351E+04   6.9755088794E+05   7.8381106025E+00   7.7593312273E+00
 14   7   1.8481512370E+02   1.1463714523E+04   6.9755256941E+05   7.8381431798E+00   7.7593510408E+00
 14   8   1.8481774750E+02   1.1463750351E+04   6.9755088794E+05   7.8381106025E+00   7.7593312273E+00
 14   9   1.8481755396E+02   1.1463736609E+04   6.9754993263E+05   7.8381099710E+00   7.7593308432E+00
 14  10   1.1306217839E+02   6.4763311965E+03   3.4046378487E+05   7.4089220221E+00   7.4982987326E+00
 14  11   1.1306096228E+02   6.4763377496E+03   3.4046617212E+05   7.4089550852E+00   7.4983188416E+00
 14  12   1.1306062434E+02   6.4763328374E+03   3.4046631362E+05   7.4089614195E+00   7.4983226941E+00
 14  13   1.1306217839E+02   6.4763311965E+03   3.4046378487E+05   7.4089220221E+00   7.4982987326E+00
 14  14   1.1306062434E+02   6.4763328374E+03   3.4046631362E+05   7.4089614195E+00   7.4983226941E+00
 15   1   1.0935518198E+02   6.2953692451E+03   3.3176240333E+05   7.4227971771E+00   7.5067376019E+00
 15   2   1.0935619278E+02   6.2953636777E+03   3.3176041672E+05   7.4227687752E+00   7.5067203279E+00
 15   3   1.0935619278E+02   6.2953636777E+03   3.3176041672E+05   7.4227687752E+00   7.5067203279E+00
 15   4   1.8481564118E+02   1.1463723007E+04   6.9755241850E+05   7.8381372622E+00   7.7593474417E+00
 15   5   1.8481807146E+02   1.1463745093E+04   6.9754978173E+05   7.8381040534E+00   7.7593272441E+00
 15   6   1.8481826499E+02   1.1463758835E+04   6.9755073703E+05   7.8381046850E+00   7.7593276282E+00
 15   7   1.8481564118E+02   1.1463723007E+04   6.9755241850E+05   7.8381372622E+00   7.7593474417E+00
 15   8   1.8481826499E+02   1.1463758835E+04   6.9755073703E+05   7.8381046850E+00   7.7593276282E+00
 15   9   1.8481807146E+02   1.1463745093E+04   6.9754978173E+05   7.8381040534E+00   7.7593272441E+00
 15  10   1.1306251635E+02   6.4763361086E+03   3.4046364338E+05   7.4089156878E+00   7.4982948802E+00
 15  11   1.1306130023E+02   6.4763426618E+03   3.4046603062E+05   7.4089487509E+00   7.4983149891E+00
 15  12   1.1306096228E+02   6.4763377496E+03   3.4046617212E+05   7.4089550852E+00   7.4983188416E+00
 15  13   1.1306251635E+02   6.4763361086E+03   3.4046364338E+05   7.4089156878E+00   7.4982948802E+00
 15  14   1.1306096228E+02   6.4763377496E+03   3.4046617212E+05   7.4089550852E+00   7.4983188416E+00
 15  15   1.1306130023E+02   6.4763426618E+03   3.4046603062E+05   7.4089487509E+00   7.4983149891E+00
 
+ van der Waals energy
  Evdw   =  -2.398584188951E-01 Hartree,  -4.797168377901E-01 Ry
  Evdw6 =  -9.216500815380E-02 Hartree,  -1.843300163076E-01 Ry
  Evdw8 =  -7.689726918221E-02 Hartree,  -1.537945383644E-01 Ry
  Evdw10 =  -7.079614155905E-02 Hartree,  -1.415922831181E-01 Ry
  Evdw9  =   0.000000000000E+00 Hartree,   0.000000000000E+00 Ry
  Fvdw (01) =   3.152193597159E-13   5.459685031390E-13  -6.041629353643E-17  Hartree/bohr
            =   6.304387194318E-13   1.091937006278E-12  -1.208325870729E-16  Ry/bohr
  Fvdw (02) =  -3.040693686086E-10   1.763363402885E-10  -3.399799705130E-08  Hartree/bohr
            =  -6.081387372172E-10   3.526726805771E-10  -6.799599410260E-08  Ry/bohr
  Fvdw (03) =   3.040693692654E-10  -1.763363371055E-10   3.399799703614E-08  Hartree/bohr
            =   6.081387385307E-10  -3.526726742111E-10   6.799599407227E-08  Ry/bohr
  Fvdw (04) =   1.216170328072E-06  -7.019044007715E-07  -1.238232322393E-03  Hartree/bohr
            =   2.432340656143E-06  -1.403808801543E-06  -2.476464644787E-03  Ry/bohr
  Fvdw (05) =   1.216183598629E-06  -7.019085656805E-07  -1.238222890539E-03  Hartree/bohr
            =   2.432367197257E-06  -1.403817131361E-06  -2.476445781078E-03  Ry/bohr
  Fvdw (06) =   1.216087422364E-06  -7.018525095653E-07  -1.238234233620E-03  Hartree/bohr
            =   2.432174844728E-06  -1.403705019131E-06  -2.476468467240E-03  Ry/bohr
  Fvdw (07) =  -1.216170328071E-06   7.019044007678E-07   1.238232322393E-03  Hartree/bohr
            =  -2.432340656143E-06   1.403808801536E-06   2.476464644787E-03  Ry/bohr
  Fvdw (08) =  -1.216087422370E-06   7.018525095603E-07   1.238234233620E-03  Hartree/bohr
            =  -2.432174844739E-06   1.403705019121E-06   2.476468467240E-03  Ry/bohr
  Fvdw (09) =  -1.216183598637E-06   7.019085656781E-07   1.238222890539E-03  Hartree/bohr
            =  -2.432367197273E-06   1.403817131356E-06   2.476445781078E-03  Ry/bohr
  Fvdw (10) =   3.049150105619E-06  -1.761999627274E-06  -2.765051572211E-04  Hartree/bohr
            =   6.098300211238E-06  -3.523999254548E-06  -5.530103144421E-04  Ry/bohr
  Fvdw (11) =   3.048241596030E-06  -1.761477973271E-06  -2.765048698939E-04  Hartree/bohr
            =   6.096483192060E-06  -3.522955946543E-06  -5.530097397878E-04  Ry/bohr
  Fvdw (12) =   3.048928103937E-06  -1.761871746244E-06  -2.765441442323E-04  Hartree/bohr
            =   6.097856207874E-06  -3.523743492488E-06  -5.530882884647E-04  Ry/bohr
  Fvdw (13) =  -3.049150420830E-06   1.761999081304E-06   2.765051572212E-04  Hartree/bohr
            =  -6.098300841660E-06   3.523998162607E-06   5.530103144425E-04  Ry/bohr
  Fvdw (14) =  -3.048928103936E-06   1.761871746248E-06   2.765441442322E-04  Hartree/bohr
            =  -6.097856207872E-06   3.523743492496E-06   5.530882884643E-04  Ry/bohr
  Fvdw (15) =  -3.048241596027E-06   1.761477973275E-06   2.765048698940E-04  Hartree/bohr
            =  -6.096483192054E-06   3.522955946550E-06   5.530097397881E-04  Ry/bohr
  sigma_vdw (Hy/bohr**3) =  -9.611029897012E-05   5.158599313133E-08  -6.747450481819E-08  
                             5.158599313133E-08  -9.605073339519E-05   3.896622834583E-08  
                            -6.747450481819E-08   3.896622834583E-08  -9.123499256069E-05  
  sigma_vdw (Ry/bohr**3) =  -1.922205979402E-04   1.031719862627E-07  -1.349490096364E-07  
                             1.031719862627E-07  -1.921014667904E-04   7.793245669166E-08  
                            -1.349490096364E-07   7.793245669166E-08  -1.824699851214E-04  
  sigma_vdw (GPa) =  -2.827662144349E+00   1.517712061237E-03  -1.985168135232E-03  
                      1.517712061237E-03  -2.825909664925E+00   1.146425825143E-03  
                     -1.985168135232E-03   1.146425825143E-03  -2.684225701805E+00  
 

!    total energy              =   -7168.31380290 Ry
     Harris-Foulkes estimate   =   -7168.31380290 Ry
     estimated scf accuracy    <          8.2E-10 Ry

     total all-electron energy =   -302138.793838 Ry

     The total energy is the sum of the following terms:

     one-electron contribution =    -365.82567514 Ry
     hartree contribution      =     301.46075681 Ry
     xc contribution           =    -399.16708277 Ry
     ewald contribution        =    -733.67079092 Ry
     Dispersion XDM Correction =      -0.47971684 Ry
     Uncorrected (XDM) energy  =   -7167.83408606 Ry
     one-center paw contrib.   =   -5970.63129405 Ry

     convergence has been achieved in  24 iterations

     Forces acting on atoms (Ry/au):

     atom    1 type  1   force =     0.00000000    0.00000000    0.00000000
     atom    2 type  1   force =     0.00000008   -0.00000005    0.00000217
     atom    3 type  1   force =    -0.00000008    0.00000005   -0.00000217
     atom    4 type  2   force =    -0.00014345    0.00008285   -0.00007915
     atom    5 type  2   force =    -0.00014383    0.00008307   -0.00006803
     atom    6 type  2   force =    -0.00014362    0.00008295   -0.00006842
     atom    7 type  2   force =     0.00014345   -0.00008285    0.00007915
     atom    8 type  2   force =     0.00014362   -0.00008295    0.00006842
     atom    9 type  2   force =     0.00014383   -0.00008307    0.00006803
     atom   10 type  1   force =    -0.00022727    0.00013109   -0.00032107
     atom   11 type  1   force =    -0.00022722    0.00013107   -0.00032693
     atom   12 type  1   force =    -0.00022720    0.00013105   -0.00031832
     atom   13 type  1   force =     0.00022727   -0.00013109    0.00032107
     atom   14 type  1   force =     0.00022720   -0.00013105    0.00031832
     atom   15 type  1   force =     0.00022722   -0.00013107    0.00032693

     Total force =     0.001110     Total SCF correction =     0.000138

     Total XDM Dispersion Force =     0.006216

     XDM Dispersion forces acting on atoms:
     atom    1 type  1   force =     0.00000000    0.00000000    0.00000000
     atom    2 type  1   force =     0.00000000    0.00000000   -0.00000007
     atom    3 type  1   force =     0.00000000    0.00000000    0.00000007
     atom    4 type  2   force =     0.00000243   -0.00000140   -0.00247646
     atom    5 type  2   force =     0.00000243   -0.00000140   -0.00247645
     atom    6 type  2   force =     0.00000243   -0.00000140   -0.00247647
     atom    7 type  2   force =    -0.00000243    0.00000140    0.00247646
     atom    8 type  2   force =    -0.00000243    0.00000140    0.00247647
     atom    9 type  2   force =    -0.00000243    0.00000140    0.00247645
     atom   10 type  1   force =     0.00000610   -0.00000352   -0.00055301
     atom   11 type  1   force =     0.00000610   -0.00000352   -0.00055301
     atom   12 type  1   force =     0.00000610   -0.00000352   -0.00055309
     atom   13 type  1   force =    -0.00000610    0.00000352    0.00055301
     atom   14 type  1   force =    -0.00000610    0.00000352    0.00055309
     atom   15 type  1   force =    -0.00000610    0.00000352    0.00055301
     SCF correction compared to forces is large: reduce conv_thr to get better values


     entering subroutine stress ...

          total   stress  (Ry/bohr**3)                   (kbar)     P=   -0.17
  -0.00000189  -0.00000002   0.00000000         -0.28      0.00      0.00
  -0.00000002  -0.00000192   0.00000000          0.00     -0.28      0.00
   0.00000000   0.00000000   0.00000026          0.00      0.00      0.04


     Writing output data file crystal.save
 
     init_run     :    110.20s CPU    119.31s WALL (       2 calls)
     electrons    :   6945.25s CPU   7092.11s WALL (       2 calls)
     forces       :     85.66s CPU     86.10s WALL (       2 calls)
     stress       :    319.76s CPU    320.53s WALL (       2 calls)

     Called by init_run:
     wfcinit      :     56.95s CPU     65.22s WALL (       2 calls)
     potinit      :     13.35s CPU     13.74s WALL (       2 calls)

     Called by electrons:
     c_bands      :   2955.21s CPU   3076.72s WALL (      48 calls)
     sum_band     :   3070.04s CPU   3086.08s WALL (      48 calls)
     v_of_rho     :     33.26s CPU     34.71s WALL (      50 calls)
     newd         :    517.34s CPU    521.43s WALL (      50 calls)
     mix_rho      :     32.28s CPU     32.95s WALL (      48 calls)

     Called by c_bands:
     init_us_2    :     21.77s CPU     21.82s WALL (    1632 calls)
     cegterg      :   2898.08s CPU   3005.80s WALL (     768 calls)

     Called by *egterg:
     h_psi        :   2445.88s CPU   2455.87s WALL (    3198 calls)
     s_psi        :    101.28s CPU    101.39s WALL (    3198 calls)
     g_psi        :      4.48s CPU      4.45s WALL (    2398 calls)
     cdiaghg      :     74.00s CPU     74.11s WALL (    3166 calls)

     Called by h_psi:
     add_vuspsi   :    104.95s CPU    105.09s WALL (    3198 calls)

     General routines
     calbec       :    145.70s CPU    146.30s WALL (    4030 calls)
     fft          :     62.36s CPU     63.82s WALL (    1150 calls)
     ffts         :      1.02s CPU      1.07s WALL (     196 calls)
     fftw         :   3471.32s CPU   3483.03s WALL (  503606 calls)
     interpolate  :     12.04s CPU     12.56s WALL (     196 calls)
     davcio       :      0.11s CPU     28.77s WALL (    2400 calls)
 
     Parallel routines
     fft_scatter  :    845.97s CPU    854.43s WALL (  504952 calls)
 
     PAW routines
     PAW_pot      :     32.86s CPU     34.02s WALL (      50 calls)
     PAW_ddot     :     16.02s CPU     16.57s WALL (    1592 calls)
     PAW_symme    :      0.04s CPU      0.03s WALL (      98 calls)
 
     PWSCF        :     2h 4m CPU        2h 6m WALL

 
   This run was terminated on:   9:53:25   9Jul2014            

=------------------------------------------------------------------------------=
   JOB DONE.
=------------------------------------------------------------------------------=
