
     Program PWSCF v.4.3.2      starts on  8Jul2014 at 14:19:29 

     This program is part of the open-source Quantum ESPRESSO suite
     for quantum simulation of materials; please cite
         "P. Giannozzi et al., J. Phys.:Condens. Matter 21 395502 (2009);
          URL http://www.quantum-espresso.org", 
     in publications or presentations arising from this work. More details at
     http://www.quantum-espresso.org/wiki/index.php/Citing_Quantum-ESPRESSO

     Parallel version (MPI), running on     8 processors
     R & G space division:  proc/pool =    8

     Current dimensions of program PWSCF are:
     Max number of different atomic species (ntypx) = 10
     Max number of k-points (npk) =  40000
     Max angular momentum in pseudopotentials (lmaxx) =  3
     Waiting for input...
     Reading input from stdin
               file se.UPF: wavefunction(s)  4S renormalized
               file bi.UPF: wavefunction(s)  6S renormalized

     Subspace diagonalization in iterative solution of the eigenvalue problem:
     a serial algorithm will be used

     Found symmetry operation: I + (  0.3333 -0.3333  0.3333)
     This is a supercell, fractional translations are disabled
 
     Parallelization info
     --------------------
     sticks:   dense  smooth     PW     G-vecs:    dense   smooth      PW
     Min         381     154     43               126567    31988    4897
     Max         382     155     44               126594    32029    4930
     Sum        3055    1237    349              1012655   256083   39349
 

     Title: 
     crystal                                                                    


     bravais-lattice index     =            0
     lattice parameter (alat)  =       1.0000  a.u.
     unit-cell volume          =    4079.3516 (a.u.)^3
     number of atoms/cell      =           21
     number of atomic types    =            2
     number of electrons       =       234.00
     number of Kohn-Sham states=          117
     kinetic-energy cutoff     =      60.0000  Ry
     charge density cutoff     =     600.0000  Ry
     convergence threshold     =      1.0E-08
     mixing beta               =       0.7000
     number of iterations used =            8  plain     mixing
     Exchange-correlation      =  SLA  PW   B86B PBC ( 1 418 4 0)
     EXX-fraction              =        0.00
     nstep                     =           50


     celldm(1)=   1.000000  celldm(2)=   0.000000  celldm(3)=   0.000000
     celldm(4)=   0.000000  celldm(5)=   0.000000  celldm(6)=   0.000000

     crystal axes: (cart. coord. in units of alat)
               a(1) = (   8.598238   0.000000   0.000000 )  
               a(2) = (  -4.299119   7.446293   0.000000 )  
               a(3) = (   0.000000   0.000000  63.714981 )  

     reciprocal axes: (cart. coord. in units 2 pi/alat)
               b(1) = (  0.116303  0.067148  0.000000 )  
               b(2) = (  0.000000  0.134295  0.000000 )  
               b(3) = (  0.000000  0.000000  0.015695 )  


     PseudoPot. # 1 for Se read from file:
     ./se.UPF
     MD5 check sum: b3bf652973104d59ec74c383fb772ff0
     Pseudo is Projector augmented-wave + core cor, Zval =  6.0
     Generated using "atomic" code by A. Dal Corso  (Quantum ESPRESSO distribution)
     Shape of augmentation charge: PSQ
     Using radial grid of 1211 points,  4 beta functions with: 
                l(1) =   0
                l(2) =   0
                l(3) =   1
                l(4) =   1
     Q(r) pseudized with 0 coefficients 


     PseudoPot. # 2 for Bi read from file:
     ./bi.UPF
     MD5 check sum: 91f95544658e59ce26375ffdd66940af
     Pseudo is Projector augmented-wave + core cor, Zval = 15.0
     Generated using "atomic" code by A. Dal Corso  (Quantum ESPRESSO distribution)
     Shape of augmentation charge: PSQ
     Using radial grid of 1283 points,  6 beta functions with: 
                l(1) =   0
                l(2) =   0
                l(3) =   1
                l(4) =   1
                l(5) =   2
                l(6) =   2
     Q(r) pseudized with 0 coefficients 


     atomic species   valence    mass     pseudopotential
        se             6.00    78.96000     Se( 1.00)
        bi            15.00   208.98038     Bi( 1.00)

      2 Sym.Ops. (with inversion)


   Cartesian axes

     site n.     atom                  positions (alat units)
         1           bi  tau(   1) = (   4.2991193   7.4462925   9.2124096  )
         2           bi  tau(   2) = (   0.0000000   4.9641950  30.4507364  )
         3           bi  tau(   3) = (   4.2991192   2.4820974  51.6890638  )
         4           bi  tau(   4) = (   4.2991187   7.4462921  54.5025721  )
         5           bi  tau(   5) = (  -0.0000006   4.9641946  12.0259179  )
         6           bi  tau(   6) = (   4.2991185   2.4820971  33.2642446  )
         7           bi  tau(   7) = (   4.2991191   7.4462924  18.1827984  )
         8           bi  tau(   8) = (  -0.0000001   4.9641949  39.4211252  )
         9           bi  tau(   9) = (   4.2991191   2.4820973  60.6594520  )
        10           bi  tau(  10) = (   4.2991187   7.4462919  45.5321832  )
        11           bi  tau(  11) = (  -0.0000006   4.9641945   3.0555290  )
        12           bi  tau(  12) = (   4.2991185   2.4820970  24.2938558  )
        13           se  tau(  13) = (   4.2991190   7.4462923  26.6815728  )
        14           se  tau(  14) = (  -0.0000002   4.9641948  47.9199002  )
        15           se  tau(  15) = (   4.2991189   2.4820973   5.4432460  )
        16           se  tau(  16) = (   4.2991187   7.4462919  37.0334082  )
        17           se  tau(  17) = (  -0.0000006   4.9641943  58.2717356  )
        18           se  tau(  18) = (   4.2991185   2.4820968  15.7950814  )
        19           se  tau(  19) = (   0.0000000   0.0000000   0.0000000  )
        20           se  tau(  20) = (   0.0000001   4.9641950  21.2383268  )
        21           se  tau(  21) = (   4.2991193   2.4820975  42.4766542  )

     number of k points=    16
                       cart. coord. in units 2pi/alat
        k(    1) = (   0.0145379   0.0251803   0.0039237), wk =   0.1250000
        k(    2) = (   0.0145379   0.0587541   0.0039237), wk =   0.1250000
        k(    3) = (   0.0145379  -0.0419672   0.0039237), wk =   0.1250000
        k(    4) = (   0.0145379  -0.0083934   0.0039237), wk =   0.1250000
        k(    5) = (   0.0436136   0.0419672   0.0039237), wk =   0.1250000
        k(    6) = (   0.0436136   0.0755409   0.0039237), wk =   0.1250000
        k(    7) = (   0.0436136  -0.0251803   0.0039237), wk =   0.1250000
        k(    8) = (   0.0436136   0.0083934   0.0039237), wk =   0.1250000
        k(    9) = (  -0.0145379  -0.0251803   0.0039237), wk =   0.1250000
        k(   10) = (  -0.0145379  -0.0587541   0.0039237), wk =   0.1250000
        k(   11) = (  -0.0145379   0.0419672   0.0039237), wk =   0.1250000
        k(   12) = (  -0.0145379   0.0083934   0.0039237), wk =   0.1250000
        k(   13) = (  -0.0436136  -0.0419672   0.0039237), wk =   0.1250000
        k(   14) = (  -0.0436136  -0.0755409   0.0039237), wk =   0.1250000
        k(   15) = (  -0.0436136   0.0251803   0.0039237), wk =   0.1250000
        k(   16) = (  -0.0436136  -0.0083934   0.0039237), wk =   0.1250000

     Dense  grid:  1012655 G-vectors     FFT dimensions: (  72,  72, 500)

     Smooth grid:   256083 G-vectors     FFT dimensions: (  45,  45, 320)

     Largest allocated arrays     est. size (Mb)     dimensions
        Kohn-Sham Wavefunctions         7.23 Mb     (   4048,  117)
        NL pseudopotentials            17.79 Mb     (   4048,  288)
        Each V/rho on FFT grid          4.98 Mb     ( 326592)
        Each G-vector array             0.97 Mb     ( 126567)
        G-vector shells                 0.97 Mb     ( 126567)
     Largest temporary arrays     est. size (Mb)     dimensions
        Auxiliary wavefunctions        28.91 Mb     (   4048,  468)
        Each subspace H/S matrix        3.34 Mb     ( 468, 468)
        Each <psi_i|beta_j> matrix      0.51 Mb     (    288,  117)
        Arrays for rho mixing          39.87 Mb     ( 326592,   8)

     Initial potential from superposition of free atoms

     starting charge  233.98974, renormalised to  234.00000
     Starting wfc are  144 atomic wfcs
     Checking if some PAW data can be deallocated... 

     total cpu time spent up to now is      136.1 secs

     per-process dynamical memory:   140.7 Mb

     Self-consistent Calculation

     iteration #  1     ecut=    60.00 Ry     beta=0.70
     Davidson diagonalization with overlap
     ethr =  1.00E-02,  avg # of iterations =  2.0

     total cpu time spent up to now is      493.2 secs

     total energy              =  -12622.94386737 Ry
     Harris-Foulkes estimate   =  -12623.56355473 Ry
     estimated scf accuracy    <    1721.14636092 Ry

     iteration #  2     ecut=    60.00 Ry     beta=0.70
     Davidson diagonalization with overlap
     ethr =  1.00E-02,  avg # of iterations =  2.7

     total cpu time spent up to now is      856.4 secs

     total energy              =  -12618.73424518 Ry
     Harris-Foulkes estimate   =  -12624.06572588 Ry
     estimated scf accuracy    <     158.48042771 Ry

     iteration #  3     ecut=    60.00 Ry     beta=0.70
     Davidson diagonalization with overlap
     ethr =  1.00E-02,  avg # of iterations =  6.1

     total cpu time spent up to now is     1335.6 secs

     total energy              =  -12593.85435679 Ry
     Harris-Foulkes estimate   =  -12661.97113542 Ry
     estimated scf accuracy    <     350.74511284 Ry

     iteration #  4     ecut=    60.00 Ry     beta=0.70
     Davidson diagonalization with overlap
     ethr =  1.00E-02,  avg # of iterations =  6.1

     total cpu time spent up to now is     1814.4 secs

     total energy              =  -12622.97061272 Ry
     Harris-Foulkes estimate   =  -12624.33670866 Ry
     estimated scf accuracy    <       3.48487196 Ry

     iteration #  5     ecut=    60.00 Ry     beta=0.70
     Davidson diagonalization with overlap
     ethr =  1.49E-03,  avg # of iterations =  3.1

     total cpu time spent up to now is     2193.7 secs

     total energy              =  -12623.41093232 Ry
     Harris-Foulkes estimate   =  -12623.43813399 Ry
     estimated scf accuracy    <       0.11139951 Ry

     iteration #  6     ecut=    60.00 Ry     beta=0.70
     Davidson diagonalization with overlap
     ethr =  4.76E-05,  avg # of iterations =  5.2

     total cpu time spent up to now is     2626.4 secs

     total energy              =  -12623.44268068 Ry
     Harris-Foulkes estimate   =  -12623.44489129 Ry
     estimated scf accuracy    <       0.03447628 Ry

     iteration #  7     ecut=    60.00 Ry     beta=0.70
     Davidson diagonalization with overlap
     ethr =  1.47E-05,  avg # of iterations =  2.8

     total cpu time spent up to now is     2981.2 secs

     total energy              =  -12623.44289431 Ry
     Harris-Foulkes estimate   =  -12623.44349885 Ry
     estimated scf accuracy    <       0.02405346 Ry

     iteration #  8     ecut=    60.00 Ry     beta=0.70
     Davidson diagonalization with overlap
     ethr =  1.03E-05,  avg # of iterations =  4.4

     total cpu time spent up to now is     3348.5 secs

     total energy              =  -12623.44077696 Ry
     Harris-Foulkes estimate   =  -12623.44386170 Ry
     estimated scf accuracy    <       0.03647191 Ry

     iteration #  9     ecut=    60.00 Ry     beta=0.70
     Davidson diagonalization with overlap
     ethr =  1.03E-05,  avg # of iterations =  4.8

     total cpu time spent up to now is     3719.8 secs

     total energy              =  -12623.44089967 Ry
     Harris-Foulkes estimate   =  -12623.44227900 Ry
     estimated scf accuracy    <       0.01514086 Ry

     iteration # 10     ecut=    60.00 Ry     beta=0.70
     Davidson diagonalization with overlap
     ethr =  6.47E-06,  avg # of iterations =  3.1

     total cpu time spent up to now is     4081.6 secs

     total energy              =  -12623.44008456 Ry
     Harris-Foulkes estimate   =  -12623.44150834 Ry
     estimated scf accuracy    <       0.01038951 Ry

     iteration # 11     ecut=    60.00 Ry     beta=0.70
     Davidson diagonalization with overlap
     ethr =  4.44E-06,  avg # of iterations =  4.1

     total cpu time spent up to now is     4457.4 secs

     total energy              =  -12623.44064432 Ry
     Harris-Foulkes estimate   =  -12623.44089713 Ry
     estimated scf accuracy    <       0.00392459 Ry

     iteration # 12     ecut=    60.00 Ry     beta=0.70
     Davidson diagonalization with overlap
     ethr =  1.68E-06,  avg # of iterations =  2.4

     total cpu time spent up to now is     4819.0 secs

     total energy              =  -12623.44073313 Ry
     Harris-Foulkes estimate   =  -12623.44082417 Ry
     estimated scf accuracy    <       0.00251614 Ry

     iteration # 13     ecut=    60.00 Ry     beta=0.70
     Davidson diagonalization with overlap
     ethr =  1.08E-06,  avg # of iterations =  2.9

     total cpu time spent up to now is     5175.4 secs

     total energy              =  -12623.44066381 Ry
     Harris-Foulkes estimate   =  -12623.44079971 Ry
     estimated scf accuracy    <       0.00221443 Ry

     iteration # 14     ecut=    60.00 Ry     beta=0.70
     Davidson diagonalization with overlap
     ethr =  9.46E-07,  avg # of iterations =  2.8

     total cpu time spent up to now is     5531.5 secs

     total energy              =  -12623.44067506 Ry
     Harris-Foulkes estimate   =  -12623.44071569 Ry
     estimated scf accuracy    <       0.00052972 Ry

     iteration # 15     ecut=    60.00 Ry     beta=0.70
     Davidson diagonalization with overlap
     ethr =  2.26E-07,  avg # of iterations =  5.2

     total cpu time spent up to now is     5915.6 secs

     total energy              =  -12623.44071755 Ry
     Harris-Foulkes estimate   =  -12623.44073093 Ry
     estimated scf accuracy    <       0.00018831 Ry

     iteration # 16     ecut=    60.00 Ry     beta=0.70
     Davidson diagonalization with overlap
     ethr =  8.05E-08,  avg # of iterations =  3.5

     total cpu time spent up to now is     6276.6 secs

     total energy              =  -12623.44072258 Ry
     Harris-Foulkes estimate   =  -12623.44072392 Ry
     estimated scf accuracy    <       0.00001637 Ry

     iteration # 17     ecut=    60.00 Ry     beta=0.70
     Davidson diagonalization with overlap
     ethr =  7.00E-09,  avg # of iterations =  5.4

     total cpu time spent up to now is     6679.9 secs

     total energy              =  -12623.44072499 Ry
     Harris-Foulkes estimate   =  -12623.44072561 Ry
     estimated scf accuracy    <       0.00000592 Ry

     iteration # 18     ecut=    60.00 Ry     beta=0.70
     Davidson diagonalization with overlap
     ethr =  2.53E-09,  avg # of iterations =  4.3

     total cpu time spent up to now is     7056.4 secs

     total energy              =  -12623.44072510 Ry
     Harris-Foulkes estimate   =  -12623.44072541 Ry
     estimated scf accuracy    <       0.00000165 Ry

     iteration # 19     ecut=    60.00 Ry     beta=0.70
     Davidson diagonalization with overlap
     ethr =  7.07E-10,  avg # of iterations =  5.2

     total cpu time spent up to now is     7446.9 secs

     total energy              =  -12623.44072523 Ry
     Harris-Foulkes estimate   =  -12623.44072535 Ry
     estimated scf accuracy    <       0.00000133 Ry

     iteration # 20     ecut=    60.00 Ry     beta=0.70
     Davidson diagonalization with overlap
     ethr =  5.69E-10,  avg # of iterations =  4.1

     total cpu time spent up to now is     7824.4 secs

     total energy              =  -12623.44072528 Ry
     Harris-Foulkes estimate   =  -12623.44072534 Ry
     estimated scf accuracy    <       0.00000031 Ry

     iteration # 21     ecut=    60.00 Ry     beta=0.70
     Davidson diagonalization with overlap
     ethr =  1.30E-10,  avg # of iterations =  4.6

     total cpu time spent up to now is     8208.8 secs

     total energy              =  -12623.44072530 Ry
     Harris-Foulkes estimate   =  -12623.44072531 Ry
     estimated scf accuracy    <       0.00000007 Ry

     iteration # 22     ecut=    60.00 Ry     beta=0.70
     Davidson diagonalization with overlap
     ethr =  3.09E-11,  avg # of iterations =  4.6

     total cpu time spent up to now is     8595.0 secs

     total energy              =  -12623.44072530 Ry
     Harris-Foulkes estimate   =  -12623.44072531 Ry
     estimated scf accuracy    <       0.00000004 Ry

     iteration # 23     ecut=    60.00 Ry     beta=0.70
     Davidson diagonalization with overlap
     ethr =  1.53E-11,  avg # of iterations =  4.1

     total cpu time spent up to now is     8985.1 secs

     total energy              =  -12623.44072530 Ry
     Harris-Foulkes estimate   =  -12623.44072531 Ry
     estimated scf accuracy    <       0.00000001 Ry

     iteration # 24     ecut=    60.00 Ry     beta=0.70
     Davidson diagonalization with overlap
     ethr =  4.52E-12,  avg # of iterations =  4.7

     total cpu time spent up to now is     9380.6 secs

     End of self-consistent calculation

          k = 0.0145 0.0252 0.0039 ( 32062 PWs)   bands (ev):

   -14.2263 -14.2262 -14.2262 -14.2242 -14.2241 -14.2241 -14.2191 -14.2191
   -14.2190 -14.2167 -14.2166 -14.2166 -14.2153 -14.2152 -14.2152 -14.2145
   -14.2144 -14.2144 -14.2095 -14.2094 -14.2094 -14.2074 -14.2074 -14.2073
   -14.2024 -14.2023 -14.2023 -14.1947 -14.1947 -14.1946 -13.5194 -13.5194
   -13.5193 -13.4932 -13.4931 -13.4931 -13.3796 -13.3796 -13.3795 -13.3765
   -13.3765 -13.3764 -13.3455 -13.3455 -13.3455 -13.2529 -13.2529 -13.2528
   -13.2144 -13.2144 -13.2143 -13.2000 -13.1999 -13.1999 -13.1384 -13.1384
   -13.1383 -13.0988 -13.0988 -13.0987  -5.0443  -5.0273  -5.0078  -4.5570
    -4.5034  -4.4467  -3.6954  -3.6149  -3.5335  -2.6864  -2.6218  -2.5630
    -1.0158  -0.9778  -0.9370  -0.5532  -0.5260  -0.5024   0.5616   0.5651
     0.5686   4.9131   4.9286   4.9522   4.9691   5.0285   5.1045   5.4811
     5.6023   5.6239   5.6820   5.7474   5.7939   6.3328   6.3501   6.3608
     6.6902   6.7500   6.7847   6.7928   6.8033   6.8696   7.0157   7.1187
     7.1626   7.2723   7.3208   7.4322   8.1308   8.2554   8.3688   8.3757
     8.4199   8.4589   8.6885   8.7600   8.8418

          k = 0.0145 0.0588 0.0039 ( 31984 PWs)   bands (ev):

   -14.2320 -14.2320 -14.2319 -14.2258 -14.2258 -14.2258 -14.2201 -14.2200
   -14.2200 -14.2187 -14.2186 -14.2186 -14.2138 -14.2138 -14.2137 -14.2128
   -14.2127 -14.2127 -14.2084 -14.2083 -14.2083 -14.2039 -14.2038 -14.2038
   -14.1977 -14.1976 -14.1976 -14.1934 -14.1933 -14.1933 -13.5142 -13.5142
   -13.5141 -13.4119 -13.4118 -13.4118 -13.3785 -13.3784 -13.3784 -13.3400
   -13.3400 -13.3399 -13.3088 -13.3088 -13.3087 -13.2819 -13.2818 -13.2818
   -13.2583 -13.2583 -13.2583 -13.2246 -13.2246 -13.2245 -13.2002 -13.2002
   -13.2001 -13.1011 -13.1011 -13.1011  -4.0610  -4.0508  -4.0424  -3.8394
    -3.8245  -3.8044  -3.5937  -3.5853  -3.5792  -2.1206  -2.0690  -2.0488
    -1.9193  -1.8736  -1.7626  -1.5953  -1.5383  -1.5133  -0.5684  -0.5679
    -0.5672   3.6823   3.7531   3.9436   4.5173   4.5912   4.6040   4.8467
     4.8546   4.9237   4.9348   5.0959   5.3302   5.5425   5.7815   5.8860
     6.1141   6.2101   6.2252   6.2454   6.5591   6.6342   6.7664   6.8824
     6.9024   7.0823   7.0943   7.4402   7.9487   8.0258   8.1700   8.2801
     8.3480   8.3865   8.7220   8.8092   9.0585

          k = 0.0145-0.0420 0.0039 ( 31995 PWs)   bands (ev):

   -14.2303 -14.2302 -14.2302 -14.2246 -14.2245 -14.2245 -14.2227 -14.2227
   -14.2226 -14.2184 -14.2183 -14.2183 -14.2146 -14.2146 -14.2145 -14.2133
   -14.2132 -14.2132 -14.2063 -14.2063 -14.2062 -14.2031 -14.2031 -14.2030
   -14.1995 -14.1994 -14.1994 -14.1952 -14.1952 -14.1951 -13.5175 -13.5175
   -13.5174 -13.4537 -13.4537 -13.4536 -13.3814 -13.3814 -13.3814 -13.3560
   -13.3560 -13.3559 -13.3134 -13.3134 -13.3133 -13.2795 -13.2795 -13.2794
   -13.2325 -13.2325 -13.2324 -13.2070 -13.2070 -13.2069 -13.1768 -13.1768
   -13.1767 -13.1012 -13.1012 -13.1011  -4.6088  -4.5960  -4.5793  -4.1960
    -4.1533  -4.1184  -3.5402  -3.5124  -3.4714  -2.3191  -2.3005  -2.2973
    -1.4576  -1.4515  -1.4319  -1.1748  -1.1565  -1.1559  -0.0168  -0.0139
    -0.0115   4.0794   4.2383   4.2484   4.6863   4.7258   4.8123   5.0752
     5.0887   5.1388   5.2820   5.3010   5.5378   5.8533   5.9171   6.0591
     6.2514   6.3790   6.4249   6.6412   6.6533   6.7917   6.9345   6.9901
     7.0528   7.1891   7.3620   7.4116   7.9933   8.0977   8.3124   8.3449
     8.4293   8.4677   8.5330   8.8743   8.9254

          k = 0.0145-0.0084 0.0039 ( 32108 PWs)   bands (ev):

   -14.2265 -14.2264 -14.2264 -14.2240 -14.2239 -14.2239 -14.2235 -14.2234
   -14.2234 -14.2165 -14.2165 -14.2164 -14.2139 -14.2138 -14.2138 -14.2129
   -14.2129 -14.2128 -14.2075 -14.2074 -14.2074 -14.2053 -14.2052 -14.2052
   -14.2052 -14.2051 -14.2051 -14.1963 -14.1963 -14.1962 -13.5244 -13.5243
   -13.5243 -13.5118 -13.5118 -13.5117 -13.3907 -13.3907 -13.3906 -13.3771
   -13.3771 -13.3770 -13.3617 -13.3617 -13.3616 -13.2400 -13.2400 -13.2399
   -13.2005 -13.2005 -13.2004 -13.1989 -13.1989 -13.1988 -13.1116 -13.1116
   -13.1115 -13.1018 -13.1018 -13.1017  -5.2749  -5.2564  -5.2352  -4.7615
    -4.7015  -4.6359  -3.8271  -3.7170  -3.6020  -2.8896  -2.7882  -2.6942
    -0.8196  -0.7341  -0.6707  -0.1345  -0.0936  -0.0242   0.9328   0.9487
     0.9518   5.4142   5.4822   5.4882   5.6788   5.7044   5.7060   5.8923
     5.9146   6.0390   6.1255   6.1492   6.2013   6.4040   6.4174   6.4862
     6.8509   6.8637   6.8667   6.8835   6.8898   6.9282   7.0572   7.1862
     7.2303   7.4451   7.5168   7.5429   8.1116   8.1680   8.2221   8.3390
     8.3887   8.3907   8.6380   8.6588   8.6624

          k = 0.0436 0.0420 0.0039 ( 31984 PWs)   bands (ev):

   -14.2320 -14.2320 -14.2319 -14.2258 -14.2258 -14.2258 -14.2201 -14.2200
   -14.2200 -14.2187 -14.2186 -14.2186 -14.2138 -14.2138 -14.2137 -14.2128
   -14.2127 -14.2127 -14.2083 -14.2083 -14.2083 -14.2039 -14.2038 -14.2038
   -14.1977 -14.1976 -14.1976 -14.1934 -14.1933 -14.1933 -13.5142 -13.5142
   -13.5141 -13.4119 -13.4118 -13.4118 -13.3785 -13.3784 -13.3784 -13.3400
   -13.3400 -13.3399 -13.3088 -13.3088 -13.3087 -13.2819 -13.2818 -13.2818
   -13.2583 -13.2583 -13.2583 -13.2246 -13.2246 -13.2245 -13.2002 -13.2002
   -13.2001 -13.1011 -13.1011 -13.1011  -4.0601  -4.0528  -4.0413  -3.8413
    -3.8208  -3.8062  -3.5931  -3.5862  -3.5788  -2.1094  -2.1003  -2.0057
    -1.9666  -1.8306  -1.7846  -1.5851  -1.5488  -1.5098  -0.5685  -0.5677
    -0.5673   3.6659   3.7979   3.9043   4.5518   4.5830   4.6282   4.8266
     4.8512   4.9072   4.9469   5.0110   5.4641   5.5974   5.6397   5.8803
     6.1746   6.1821   6.2079   6.2874   6.5444   6.6194   6.7527   6.8608
     6.8703   7.0365   7.2804   7.4585   7.8280   7.9133   8.1737   8.2883
     8.4558   8.6018   8.6268   8.7092   9.0647

          k = 0.0436 0.0755 0.0039 ( 32001 PWs)   bands (ev):

   -14.2324 -14.2324 -14.2323 -14.2271 -14.2270 -14.2270 -14.2260 -14.2259
   -14.2259 -14.2160 -14.2160 -14.2160 -14.2135 -14.2135 -14.2134 -14.2099
   -14.2098 -14.2098 -14.2039 -14.2038 -14.2038 -14.2009 -14.2008 -14.2008
   -14.1983 -14.1983 -14.1982 -14.1980 -14.1980 -14.1980 -13.5157 -13.5157
   -13.5156 -13.3920 -13.3920 -13.3919 -13.3622 -13.3622 -13.3621 -13.3441
   -13.3441 -13.3440 -13.3091 -13.3091 -13.3090 -13.2853 -13.2853 -13.2853
   -13.2530 -13.2530 -13.2529 -13.2357 -13.2357 -13.2357 -13.2175 -13.2175
   -13.2175 -13.1049 -13.1049 -13.1048  -3.7231  -3.7195  -3.7128  -3.6999
    -3.6896  -3.6820  -3.5909  -3.5869  -3.5832  -2.1200  -2.1097  -2.0972
    -1.9947  -1.9805  -1.9686  -1.5501  -1.5483  -1.5466  -1.0306  -1.0297
    -1.0289   3.8475   3.9300   4.0227   4.3188   4.3422   4.4615   4.4661
     4.5466   4.6270   4.7150   4.9270   4.9624   5.3203   5.5081   5.6786
     5.7115   5.7814   6.0475   6.3890   6.5076   6.8442   6.8773   7.0175
     7.1962   7.3462   7.4820   7.5283   8.0429   8.0794   8.2809   8.3513
     8.5313   8.6114   8.7434   8.7660   8.9329

          k = 0.0436-0.0252 0.0039 ( 31977 PWs)   bands (ev):

   -14.2348 -14.2347 -14.2347 -14.2279 -14.2278 -14.2278 -14.2261 -14.2260
   -14.2260 -14.2180 -14.2179 -14.2179 -14.2121 -14.2121 -14.2120 -14.2087
   -14.2087 -14.2086 -14.2021 -14.2021 -14.2021 -14.2006 -14.2005 -14.2005
   -14.1989 -14.1989 -14.1988 -14.1982 -14.1981 -14.1981 -13.5172 -13.5172
   -13.5171 -13.4376 -13.4376 -13.4375 -13.3927 -13.3926 -13.3926 -13.3221
   -13.3221 -13.3220 -13.3219 -13.3219 -13.3219 -13.2799 -13.2799 -13.2798
   -13.2488 -13.2488 -13.2488 -13.2044 -13.2044 -13.2043 -13.1918 -13.1918
   -13.1917 -13.1028 -13.1028 -13.1027  -4.4115  -4.3970  -4.3862  -4.0503
    -4.0296  -3.9899  -3.5569  -3.5269  -3.5198  -2.2262  -2.2084  -2.2032
    -1.7380  -1.6846  -1.6644  -1.2759  -1.2746  -1.2227  -0.1901  -0.1849
    -0.1827   3.7382   3.9076   3.9472   4.7497   4.7594   4.8029   4.8075
     4.8893   5.3815   5.5211   5.5309   5.5610   5.9747   5.9883   6.0063
     6.1138   6.2574   6.3949   6.4291   6.5030   6.6666   6.6946   6.8636
     7.0346   7.0981   7.1383   7.2830   7.6199   7.8161   8.0279   8.0483
     8.3591   8.4309   8.4360   8.8100   9.1050

          k = 0.0436 0.0084 0.0039 ( 31995 PWs)   bands (ev):

   -14.2303 -14.2302 -14.2302 -14.2246 -14.2245 -14.2245 -14.2227 -14.2227
   -14.2226 -14.2184 -14.2183 -14.2183 -14.2146 -14.2146 -14.2145 -14.2133
   -14.2132 -14.2132 -14.2063 -14.2063 -14.2062 -14.2031 -14.2031 -14.2030
   -14.1995 -14.1994 -14.1994 -14.1952 -14.1952 -14.1951 -13.5175 -13.5175
   -13.5174 -13.4537 -13.4537 -13.4536 -13.3814 -13.3814 -13.3814 -13.3560
   -13.3560 -13.3559 -13.3134 -13.3134 -13.3133 -13.2795 -13.2795 -13.2794
   -13.2325 -13.2325 -13.2324 -13.2070 -13.2070 -13.2069 -13.1768 -13.1768
   -13.1767 -13.1012 -13.1012 -13.1011  -4.6088  -4.5960  -4.5793  -4.1960
    -4.1533  -4.1184  -3.5402  -3.5124  -3.4714  -2.3191  -2.3005  -2.2973
    -1.4576  -1.4515  -1.4319  -1.1748  -1.1565  -1.1559  -0.0168  -0.0139
    -0.0115   4.0794   4.2383   4.2484   4.6863   4.7258   4.8123   5.0752
     5.0887   5.1388   5.2820   5.3010   5.5378   5.8533   5.9171   6.0591
     6.2514   6.3790   6.4249   6.6412   6.6533   6.7917   6.9345   6.9901
     7.0528   7.1891   7.3620   7.4116   7.9933   8.0977   8.3124   8.3449
     8.4293   8.4677   8.5330   8.8743   8.9254

          k =-0.0145-0.0252 0.0039 ( 32062 PWs)   bands (ev):

   -14.2263 -14.2262 -14.2262 -14.2242 -14.2241 -14.2241 -14.2191 -14.2191
   -14.2190 -14.2167 -14.2166 -14.2166 -14.2153 -14.2152 -14.2152 -14.2145
   -14.2144 -14.2144 -14.2095 -14.2094 -14.2094 -14.2074 -14.2074 -14.2073
   -14.2024 -14.2023 -14.2023 -14.1947 -14.1947 -14.1946 -13.5194 -13.5194
   -13.5193 -13.4932 -13.4931 -13.4931 -13.3796 -13.3796 -13.3795 -13.3765
   -13.3765 -13.3764 -13.3455 -13.3455 -13.3455 -13.2529 -13.2529 -13.2528
   -13.2144 -13.2144 -13.2143 -13.2000 -13.1999 -13.1999 -13.1384 -13.1384
   -13.1383 -13.0988 -13.0988 -13.0987  -5.0443  -5.0273  -5.0078  -4.5570
    -4.5034  -4.4467  -3.6954  -3.6149  -3.5335  -2.6864  -2.6218  -2.5630
    -1.0158  -0.9778  -0.9370  -0.5532  -0.5260  -0.5024   0.5616   0.5651
     0.5686   4.9131   4.9286   4.9522   4.9691   5.0285   5.1045   5.4811
     5.6023   5.6239   5.6820   5.7474   5.7939   6.3328   6.3501   6.3608
     6.6902   6.7500   6.7847   6.7928   6.8033   6.8696   7.0157   7.1187
     7.1626   7.2723   7.3208   7.4322   8.1308   8.2554   8.3688   8.3757
     8.4199   8.4589   8.6885   8.7600   8.8418

          k =-0.0145-0.0588 0.0039 ( 31984 PWs)   bands (ev):

   -14.2320 -14.2320 -14.2319 -14.2258 -14.2258 -14.2258 -14.2201 -14.2200
   -14.2200 -14.2187 -14.2186 -14.2186 -14.2138 -14.2138 -14.2137 -14.2128
   -14.2127 -14.2127 -14.2083 -14.2083 -14.2083 -14.2039 -14.2038 -14.2038
   -14.1977 -14.1976 -14.1976 -14.1934 -14.1933 -14.1933 -13.5142 -13.5142
   -13.5141 -13.4119 -13.4118 -13.4118 -13.3785 -13.3784 -13.3784 -13.3400
   -13.3400 -13.3399 -13.3088 -13.3088 -13.3087 -13.2819 -13.2818 -13.2818
   -13.2583 -13.2583 -13.2583 -13.2246 -13.2246 -13.2245 -13.2002 -13.2002
   -13.2001 -13.1011 -13.1011 -13.1011  -4.0601  -4.0528  -4.0413  -3.8413
    -3.8208  -3.8062  -3.5931  -3.5862  -3.5788  -2.1094  -2.1003  -2.0057
    -1.9666  -1.8306  -1.7846  -1.5851  -1.5488  -1.5098  -0.5685  -0.5677
    -0.5673   3.6659   3.7979   3.9043   4.5518   4.5830   4.6282   4.8266
     4.8512   4.9072   4.9469   5.0110   5.4641   5.5974   5.6397   5.8803
     6.1746   6.1821   6.2079   6.2874   6.5444   6.6194   6.7527   6.8608
     6.8703   7.0365   7.2804   7.4585   7.8280   7.9133   8.1737   8.2883
     8.4558   8.6018   8.6268   8.7092   9.0647

          k =-0.0145 0.0420 0.0039 ( 31995 PWs)   bands (ev):

   -14.2303 -14.2302 -14.2302 -14.2246 -14.2245 -14.2245 -14.2227 -14.2227
   -14.2226 -14.2184 -14.2183 -14.2183 -14.2146 -14.2146 -14.2145 -14.2133
   -14.2132 -14.2132 -14.2063 -14.2063 -14.2062 -14.2031 -14.2031 -14.2030
   -14.1995 -14.1994 -14.1994 -14.1952 -14.1952 -14.1951 -13.5175 -13.5175
   -13.5174 -13.4537 -13.4537 -13.4536 -13.3814 -13.3814 -13.3814 -13.3560
   -13.3560 -13.3559 -13.3134 -13.3134 -13.3133 -13.2795 -13.2795 -13.2794
   -13.2325 -13.2325 -13.2324 -13.2070 -13.2070 -13.2069 -13.1768 -13.1768
   -13.1767 -13.1012 -13.1012 -13.1011  -4.6094  -4.5946  -4.5801  -4.1932
    -4.1592  -4.1151  -3.5457  -3.5019  -3.4765  -2.3137  -2.3108  -2.2925
    -1.4615  -1.4429  -1.4367  -1.1686  -1.1679  -1.1505  -0.0166  -0.0143
    -0.0114   4.1224   4.1272   4.3330   4.6732   4.7363   4.8100   4.9299
     5.1571   5.2203   5.3214   5.3729   5.4185   5.7622   5.9622   6.1002
     6.2529   6.3248   6.4786   6.6418   6.7205   6.8662   6.9123   6.9218
     6.9486   7.1930   7.2649   7.5842   8.0422   8.0709   8.2401   8.2741
     8.4634   8.5035   8.6103   8.7523   8.9796

          k =-0.0145 0.0084 0.0039 ( 32108 PWs)   bands (ev):

   -14.2265 -14.2264 -14.2264 -14.2240 -14.2240 -14.2239 -14.2235 -14.2234
   -14.2234 -14.2165 -14.2165 -14.2164 -14.2139 -14.2138 -14.2138 -14.2129
   -14.2129 -14.2128 -14.2075 -14.2074 -14.2074 -14.2053 -14.2052 -14.2052
   -14.2052 -14.2051 -14.2051 -14.1963 -14.1963 -14.1962 -13.5244 -13.5243
   -13.5243 -13.5118 -13.5118 -13.5117 -13.3907 -13.3907 -13.3906 -13.3771
   -13.3771 -13.3770 -13.3617 -13.3617 -13.3616 -13.2400 -13.2400 -13.2399
   -13.2005 -13.2005 -13.2004 -13.1989 -13.1989 -13.1988 -13.1116 -13.1116
   -13.1115 -13.1018 -13.1018 -13.1017  -5.2749  -5.2565  -5.2352  -4.7618
    -4.7007  -4.6363  -3.8257  -3.7201  -3.6000  -2.8926  -2.7829  -2.6967
    -0.8109  -0.7542  -0.6582  -0.1495  -0.0683  -0.0356   0.9371   0.9404
     0.9558   5.4330   5.4366   5.5186   5.6865   5.6876   5.7154   5.8513
     5.9853   6.0051   6.1154   6.1672   6.1934   6.3881   6.4568   6.4630
     6.8432   6.8612   6.8694   6.8948   6.9072   6.9082   7.0713   7.1196
     7.3475   7.3717   7.5022   7.5644   8.1105   8.1638   8.2282   8.3376
     8.3600   8.4247   8.6257   8.6539   8.6887

          k =-0.0436-0.0420 0.0039 ( 31984 PWs)   bands (ev):

   -14.2320 -14.2320 -14.2319 -14.2258 -14.2258 -14.2258 -14.2201 -14.2200
   -14.2200 -14.2187 -14.2186 -14.2186 -14.2138 -14.2138 -14.2137 -14.2128
   -14.2127 -14.2127 -14.2084 -14.2083 -14.2083 -14.2039 -14.2038 -14.2038
   -14.1977 -14.1976 -14.1976 -14.1934 -14.1933 -14.1933 -13.5142 -13.5142
   -13.5141 -13.4119 -13.4118 -13.4118 -13.3785 -13.3784 -13.3784 -13.3400
   -13.3400 -13.3399 -13.3088 -13.3088 -13.3087 -13.2819 -13.2818 -13.2818
   -13.2583 -13.2583 -13.2583 -13.2246 -13.2246 -13.2245 -13.2002 -13.2002
   -13.2001 -13.1011 -13.1011 -13.1011  -4.0610  -4.0508  -4.0424  -3.8394
    -3.8245  -3.8044  -3.5937  -3.5853  -3.5792  -2.1206  -2.0690  -2.0488
    -1.9193  -1.8736  -1.7626  -1.5953  -1.5383  -1.5133  -0.5684  -0.5679
    -0.5672   3.6823   3.7531   3.9436   4.5173   4.5912   4.6040   4.8467
     4.8546   4.9237   4.9348   5.0959   5.3302   5.5425   5.7815   5.8860
     6.1141   6.2101   6.2252   6.2454   6.5591   6.6342   6.7664   6.8824
     6.9024   7.0823   7.0943   7.4402   7.9487   8.0258   8.1700   8.2801
     8.3480   8.3865   8.7220   8.8092   9.0585

          k =-0.0436-0.0755 0.0039 ( 32001 PWs)   bands (ev):

   -14.2324 -14.2324 -14.2323 -14.2271 -14.2270 -14.2270 -14.2260 -14.2259
   -14.2259 -14.2160 -14.2160 -14.2160 -14.2135 -14.2135 -14.2134 -14.2099
   -14.2098 -14.2098 -14.2039 -14.2038 -14.2038 -14.2009 -14.2008 -14.2008
   -14.1983 -14.1983 -14.1982 -14.1980 -14.1980 -14.1980 -13.5157 -13.5157
   -13.5156 -13.3920 -13.3920 -13.3919 -13.3622 -13.3622 -13.3621 -13.3441
   -13.3441 -13.3440 -13.3091 -13.3091 -13.3090 -13.2853 -13.2853 -13.2853
   -13.2530 -13.2530 -13.2529 -13.2357 -13.2357 -13.2357 -13.2175 -13.2175
   -13.2175 -13.1049 -13.1049 -13.1048  -3.7231  -3.7195  -3.7128  -3.6999
    -3.6896  -3.6820  -3.5909  -3.5869  -3.5832  -2.1200  -2.1097  -2.0972
    -1.9947  -1.9805  -1.9686  -1.5501  -1.5483  -1.5466  -1.0306  -1.0297
    -1.0289   3.8475   3.9300   4.0227   4.3188   4.3422   4.4615   4.4661
     4.5466   4.6270   4.7150   4.9270   4.9624   5.3203   5.5081   5.6786
     5.7115   5.7814   6.0475   6.3890   6.5076   6.8442   6.8773   7.0175
     7.1962   7.3462   7.4820   7.5283   8.0429   8.0794   8.2809   8.3513
     8.5313   8.6114   8.7434   8.7660   8.9329

          k =-0.0436 0.0252 0.0039 ( 31977 PWs)   bands (ev):

   -14.2348 -14.2347 -14.2347 -14.2279 -14.2278 -14.2278 -14.2261 -14.2260
   -14.2260 -14.2180 -14.2179 -14.2179 -14.2121 -14.2121 -14.2120 -14.2087
   -14.2087 -14.2086 -14.2022 -14.2021 -14.2021 -14.2006 -14.2005 -14.2005
   -14.1989 -14.1989 -14.1988 -14.1982 -14.1981 -14.1981 -13.5172 -13.5172
   -13.5171 -13.4376 -13.4376 -13.4375 -13.3927 -13.3926 -13.3926 -13.3221
   -13.3221 -13.3220 -13.3219 -13.3219 -13.3219 -13.2799 -13.2799 -13.2798
   -13.2488 -13.2488 -13.2488 -13.2044 -13.2044 -13.2043 -13.1918 -13.1918
   -13.1917 -13.1028 -13.1028 -13.1027  -4.4100  -4.4004  -4.3842  -4.0564
    -4.0171  -3.9966  -3.5493  -3.5410  -3.5132  -2.2218  -2.2176  -2.1984
    -1.7284  -1.7077  -1.6500  -1.2963  -1.2400  -1.2378  -0.1890  -0.1869
    -0.1818   3.7773   3.8035   4.0317   4.6512   4.7399   4.7821   4.7939
     5.1763   5.2984   5.4202   5.4481   5.6089   5.9783   6.0035   6.0174
     6.2106   6.2178   6.3257   6.5708   6.6132   6.6280   6.6632   6.8043
     6.9121   6.9387   7.1142   7.6170   7.7880   7.8017   7.8373   7.9854
     8.1417   8.4145   8.7331   8.8251   9.1715

          k =-0.0436-0.0084 0.0039 ( 31995 PWs)   bands (ev):

   -14.2303 -14.2302 -14.2302 -14.2246 -14.2245 -14.2245 -14.2227 -14.2227
   -14.2226 -14.2184 -14.2183 -14.2183 -14.2146 -14.2146 -14.2145 -14.2133
   -14.2132 -14.2132 -14.2063 -14.2063 -14.2062 -14.2031 -14.2031 -14.2030
   -14.1995 -14.1994 -14.1994 -14.1952 -14.1952 -14.1951 -13.5175 -13.5175
   -13.5174 -13.4537 -13.4537 -13.4536 -13.3814 -13.3814 -13.3814 -13.3560
   -13.3560 -13.3559 -13.3134 -13.3134 -13.3133 -13.2795 -13.2795 -13.2794
   -13.2325 -13.2325 -13.2324 -13.2070 -13.2070 -13.2069 -13.1768 -13.1768
   -13.1767 -13.1012 -13.1012 -13.1011  -4.6094  -4.5946  -4.5801  -4.1932
    -4.1592  -4.1151  -3.5457  -3.5019  -3.4765  -2.3137  -2.3108  -2.2925
    -1.4615  -1.4429  -1.4367  -1.1686  -1.1679  -1.1505  -0.0166  -0.0143
    -0.0114   4.1224   4.1272   4.3330   4.6732   4.7363   4.8100   4.9299
     5.1571   5.2203   5.3214   5.3729   5.4185   5.7622   5.9622   6.1002
     6.2529   6.3248   6.4786   6.6418   6.7205   6.8662   6.9123   6.9218
     6.9486   7.1930   7.2649   7.5842   8.0422   8.0709   8.2401   8.2741
     8.4634   8.5035   8.6103   8.7523   8.9796

* XDM dispersion
  a1 =     0.608200
  a2 (ang) =     1.583400
  a2 (bohr) =     2.992192
 
+ Volumes and moments
# All results in atomic units.
# i          V                 Vfree               M1                 M2                 M3
  1   1.9020368757E+02   1.9459034729E+02   1.3412164573E+01   3.0286692188E+02   8.2892424230E+03
  2   1.9020304590E+02   1.9459034729E+02   1.3412059700E+01   3.0286618810E+02   8.2892195263E+03
  3   1.9020390572E+02   1.9459034729E+02   1.3412169677E+01   3.0286715815E+02   8.2892476861E+03
  4   1.9020367798E+02   1.9459034729E+02   1.3412164226E+01   3.0286690525E+02   8.2892418767E+03
  5   1.9020390357E+02   1.9459034729E+02   1.3412169650E+01   3.0286715646E+02   8.2892477417E+03
  6   1.9020304599E+02   1.9459034729E+02   1.3412059700E+01   3.0286618820E+02   8.2892195417E+03
  7   1.8646469304E+02   1.9459034729E+02   1.3044048372E+01   2.8803984393E+02   7.9726434468E+03
  8   1.8646453349E+02   1.9459034729E+02   1.3044040558E+01   2.8803969324E+02   7.9726364761E+03
  9   1.8646416840E+02   1.9459034729E+02   1.3043926640E+01   2.8803882271E+02   7.9726132704E+03
 10   1.8646471109E+02   1.9459034729E+02   1.3044049248E+01   2.8803987660E+02   7.9726444516E+03
 11   1.8646418440E+02   1.9459034729E+02   1.3043927451E+01   2.8803885122E+02   7.9726140794E+03
 12   1.8646452593E+02   1.9459034729E+02   1.3044040264E+01   2.8803967895E+02   7.9726358822E+03
 13   9.8648608989E+01   9.9199264526E+01   8.4463786444E+00   1.6377852135E+02   3.2098898229E+03
 14   9.8649034966E+01   9.9199264526E+01   8.4464319095E+00   1.6377892278E+02   3.2098976543E+03
 15   9.8648753056E+01   9.9199264526E+01   8.4461400357E+00   1.6377864424E+02   3.2098896996E+03
 16   9.8648609696E+01   9.9199264526E+01   8.4463786805E+00   1.6377852287E+02   3.2098898821E+03
 17   9.8648744735E+01   9.9199264526E+01   8.4461394112E+00   1.6377862731E+02   3.2098892719E+03
 18   9.8649034010E+01   9.9199264526E+01   8.4464318058E+00   1.6377891905E+02   3.2098974756E+03
 19   9.9026582659E+01   9.9199264526E+01   8.3806065129E+00   1.6192247540E+02   3.1455616101E+03
 20   9.9027102569E+01   9.9199264526E+01   8.3810320571E+00   1.6192309330E+02   3.1455770450E+03
 21   9.9027113112E+01   9.9199264526E+01   8.3810327359E+00   1.6192311297E+02   3.1455775131E+03
 
+ Dispersion coefficients
# All results in atomic units.
# i   j          C6                 C8                 C10                Rc                Rvdw
  1   1   3.2733680870E+02   2.2175277778E+04   1.5102795605E+06   8.2416825417E+00   8.0047836806E+00
  2   1   3.2733497679E+02   2.2175213510E+04   1.5102769377E+06   8.2416904917E+00   8.0047885159E+00
  2   2   3.2733314488E+02   2.2175149242E+04   1.5102743149E+06   8.2416984418E+00   8.0047933511E+00
  3   1   3.2733705871E+02   2.2175299144E+04   1.5102810970E+06   8.2416830639E+00   8.0047839983E+00
  3   2   3.2733522679E+02   2.2175234876E+04   1.5102784742E+06   8.2416910140E+00   8.0047888335E+00
  3   3   3.2733730872E+02   2.2175320511E+04   1.5102826335E+06   8.2416835862E+00   8.0047843159E+00
  4   1   3.2733679621E+02   2.2175276610E+04   1.5102794663E+06   8.2416824918E+00   8.0047836504E+00
  4   2   3.2733496429E+02   2.2175212342E+04   1.5102768435E+06   8.2416904419E+00   8.0047884856E+00
  4   3   3.2733704621E+02   2.2175297976E+04   1.5102810028E+06   8.2416830141E+00   8.0047839680E+00
  4   4   3.2733678371E+02   2.2175275442E+04   1.5102793722E+06   8.2416824420E+00   8.0047836201E+00
  5   1   3.2733705652E+02   2.2175298957E+04   1.5102810880E+06   8.2416830654E+00   8.0047839992E+00
  5   2   3.2733522460E+02   2.2175234689E+04   1.5102784652E+06   8.2416910155E+00   8.0047888344E+00
  5   3   3.2733730653E+02   2.2175320323E+04   1.5102826245E+06   8.2416835877E+00   8.0047843168E+00
  5   4   3.2733704402E+02   2.2175297789E+04   1.5102809938E+06   8.2416830156E+00   8.0047839689E+00
  5   5   3.2733730433E+02   2.2175320136E+04   1.5102826155E+06   8.2416835892E+00   8.0047843177E+00
  6   1   3.2733497686E+02   2.2175213519E+04   1.5102769390E+06   8.2416904930E+00   8.0047885167E+00
  6   2   3.2733314496E+02   2.2175149251E+04   1.5102743163E+06   8.2416984431E+00   8.0047933519E+00
  6   3   3.2733522687E+02   2.2175234885E+04   1.5102784755E+06   8.2416910153E+00   8.0047888343E+00
  6   4   3.2733496437E+02   2.2175212351E+04   1.5102768449E+06   8.2416904432E+00   8.0047884864E+00
  6   5   3.2733522468E+02   2.2175234698E+04   1.5102784665E+06   8.2416910168E+00   8.0047888352E+00
  6   6   3.2733314503E+02   2.2175149260E+04   1.5102743176E+06   8.2416984444E+00   8.0047933527E+00
  7   1   3.1962224125E+02   2.1413219440E+04   1.4551805672E+06   8.2143236714E+00   7.9881440157E+00
  7   2   3.1962045534E+02   2.1413158217E+04   1.4551780466E+06   8.2143315810E+00   7.9881488263E+00
  7   3   3.1962248585E+02   2.1413240152E+04   1.4551820488E+06   8.2143241898E+00   7.9881443311E+00
  7   4   3.1962222903E+02   2.1413218307E+04   1.4551804764E+06   8.2143236217E+00   7.9881439855E+00
  7   5   3.1962248371E+02   2.1413239971E+04   1.4551820401E+06   8.2143241915E+00   7.9881443321E+00
  7   6   3.1962045541E+02   2.1413158225E+04   1.4551780479E+06   8.2143315823E+00   7.9881488272E+00
  7   7   3.1209445238E+02   2.0675092914E+04   1.4021890590E+06   8.1871947258E+00   7.9716441910E+00
  8   1   3.1962200893E+02   2.1413204679E+04   1.4551794528E+06   8.2143235907E+00   7.9881439667E+00
  8   2   3.1962022302E+02   2.1413143456E+04   1.4551769322E+06   8.2143315003E+00   7.9881487773E+00
  8   3   3.1962225353E+02   2.1413225392E+04   1.4551809343E+06   8.2143241092E+00   7.9881442820E+00
  8   4   3.1962199671E+02   2.1413203547E+04   1.4551793619E+06   8.2143235410E+00   7.9881439365E+00
  8   5   3.1962225139E+02   2.1413225210E+04   1.4551809257E+06   8.2143241108E+00   7.9881442830E+00
  8   6   3.1962022309E+02   2.1413143464E+04   1.4551769334E+06   8.2143315017E+00   7.9881487781E+00
  8   7   3.1209422537E+02   2.0675078660E+04   1.4021879826E+06   8.1871946424E+00   7.9716441403E+00
  8   8   3.1209399836E+02   2.0675064406E+04   1.4021869062E+06   8.1871945590E+00   7.9716440896E+00
  9   1   3.1962029602E+02   2.1413150385E+04   1.4551777522E+06   8.2143321892E+00   7.9881491963E+00
  9   2   3.1961851012E+02   2.1413089162E+04   1.4551752316E+06   8.2143400988E+00   7.9881540069E+00
  9   3   3.1962054062E+02   2.1413171097E+04   1.4551792337E+06   8.2143327077E+00   7.9881495116E+00
  9   4   3.1962028380E+02   2.1413149252E+04   1.4551776613E+06   8.2143321396E+00   7.9881491661E+00
  9   5   3.1962053847E+02   2.1413170916E+04   1.4551792251E+06   8.2143327093E+00   7.9881495126E+00
  9   6   3.1961851019E+02   2.1413089170E+04   1.4551752329E+06   8.2143401002E+00   7.9881540077E+00
  9   7   3.1209255702E+02   2.0675027177E+04   1.4021863588E+06   8.1872032014E+00   7.9716493459E+00
  9   8   3.1209233001E+02   2.0675012923E+04   1.4021852823E+06   8.1872031179E+00   7.9716492951E+00
  9   9   3.1209066167E+02   2.0674961440E+04   1.4021836585E+06   8.1872116769E+00   7.9716545007E+00
 10   1   3.1962226742E+02   2.1413221683E+04   1.4551807404E+06   8.2143237475E+00   7.9881440620E+00
 10   2   3.1962048152E+02   2.1413160460E+04   1.4551782198E+06   8.2143316571E+00   7.9881488727E+00
 10   3   3.1962251203E+02   2.1413242396E+04   1.4551822219E+06   8.2143242660E+00   7.9881443774E+00
 10   4   3.1962225521E+02   2.1413220551E+04   1.4551806496E+06   8.2143236978E+00   7.9881440318E+00
 10   5   3.1962250988E+02   2.1413242215E+04   1.4551822133E+06   8.2143242676E+00   7.9881443784E+00
 10   6   3.1962048159E+02   2.1413160469E+04   1.4551782211E+06   8.2143316584E+00   7.9881488735E+00
 10   7   3.1209447796E+02   2.0675095087E+04   1.4021892260E+06   8.1871948017E+00   7.9716442372E+00
 10   8   3.1209425095E+02   2.0675080833E+04   1.4021881496E+06   8.1871947183E+00   7.9716441865E+00
 10   9   3.1209258260E+02   2.0675029350E+04   1.4021865257E+06   8.1872032773E+00   7.9716493920E+00
 10  10   3.1209450353E+02   2.0675097259E+04   1.4021893929E+06   8.1871948776E+00   7.9716442834E+00
 11   1   3.1962031965E+02   2.1413152358E+04   1.4551778998E+06   8.2143322456E+00   7.9881492306E+00
 11   2   3.1961853376E+02   2.1413091135E+04   1.4551753792E+06   8.2143401552E+00   7.9881540412E+00
 11   3   3.1962056425E+02   2.1413173070E+04   1.4551793813E+06   8.2143327641E+00   7.9881495459E+00
 11   4   3.1962030744E+02   2.1413151226E+04   1.4551778089E+06   8.2143321959E+00   7.9881492004E+00
 11   5   3.1962056211E+02   2.1413172889E+04   1.4551793727E+06   8.2143327657E+00   7.9881495469E+00
 11   6   3.1961853383E+02   2.1413091143E+04   1.4551753804E+06   8.2143401566E+00   7.9881540420E+00
 11   7   3.1209258011E+02   2.0675029087E+04   1.4021865010E+06   8.1872032575E+00   7.9716493800E+00
 11   8   3.1209235311E+02   2.0675014833E+04   1.4021854246E+06   8.1872031741E+00   7.9716493293E+00
 11   9   3.1209068477E+02   2.0674963350E+04   1.4021838008E+06   8.1872117331E+00   7.9716545349E+00
 11  10   3.1209260569E+02   2.0675031260E+04   1.4021866680E+06   8.1872033334E+00   7.9716494262E+00
 11  11   3.1209070786E+02   2.0674965261E+04   1.4021839430E+06   8.1872117892E+00   7.9716545690E+00
 12   1   3.1962199886E+02   2.1413203718E+04   1.4551793685E+06   8.2143235364E+00   7.9881439337E+00
 12   2   3.1962021295E+02   2.1413142494E+04   1.4551768479E+06   8.2143314460E+00   7.9881487443E+00
 12   3   3.1962224346E+02   2.1413224430E+04   1.4551808500E+06   8.2143240549E+00   7.9881442490E+00
 12   4   3.1962198665E+02   2.1413202585E+04   1.4551792776E+06   8.2143234868E+00   7.9881439035E+00
 12   5   3.1962224132E+02   2.1413224249E+04   1.4551808414E+06   8.2143240565E+00   7.9881442500E+00
 12   6   3.1962021303E+02   2.1413142503E+04   1.4551768492E+06   8.2143314474E+00   7.9881487451E+00
 12   7   3.1209421553E+02   2.0675077728E+04   1.4021879012E+06   8.1871945881E+00   7.9716441073E+00
 12   8   3.1209398852E+02   2.0675063474E+04   1.4021868248E+06   8.1871945047E+00   7.9716440566E+00
 12   9   3.1209232017E+02   2.0675011991E+04   1.4021852010E+06   8.1872030637E+00   7.9716492622E+00
 12  10   3.1209424111E+02   2.0675079901E+04   1.4021880682E+06   8.1871946640E+00   7.9716441535E+00
 12  11   3.1209234326E+02   2.0675013901E+04   1.4021853432E+06   8.1872031198E+00   7.9716492963E+00
 12  12   3.1209397868E+02   2.0675062542E+04   1.4021867434E+06   8.1871944505E+00   7.9716440236E+00
 13   1   1.8613253562E+02   1.1718502315E+04   7.1385002129E+05   7.8696605654E+00   7.7785199147E+00
 13   2   1.8613145378E+02   1.1718468228E+04   7.1384888300E+05   7.8696688804E+00   7.7785249719E+00
 13   3   1.8613267085E+02   1.1718513348E+04   7.1385073522E+05   7.8696611053E+00   7.7785202431E+00
 13   4   1.8613252873E+02   1.1718501699E+04   7.1384997576E+05   7.8696605127E+00   7.7785198826E+00
 13   5   1.8613266969E+02   1.1718513253E+04   7.1385073159E+05   7.8696611075E+00   7.7785202444E+00
 13   6   1.8613145382E+02   1.1718468233E+04   7.1384888368E+05   7.8696688819E+00   7.7785249728E+00
 13   7   1.8167549370E+02   1.1301798026E+04   6.8688566715E+05   7.8415503182E+00   7.7614232624E+00
 13   8   1.8167536391E+02   1.1301790409E+04   6.8688514010E+05   7.8415502156E+00   7.7614231999E+00
 13   9   1.8167433057E+02   1.1301760493E+04   6.8688439223E+05   7.8415592429E+00   7.7614286903E+00
 13  10   1.8167550832E+02   1.1301799214E+04   6.8688575062E+05   7.8415503988E+00   7.7614233114E+00
 13  11   1.8167434379E+02   1.1301761537E+04   6.8688446298E+05   7.8415593022E+00   7.7614287264E+00
 13  12   1.8167535835E+02   1.1301789900E+04   6.8688509867E+05   7.8415501573E+00   7.7614231645E+00
 13  13   1.0684667740E+02   6.2153941607E+03   3.3114683330E+05   7.4625066600E+00   7.5308889094E+00
 14   1   1.8613350643E+02   1.1718542564E+04   7.1385187785E+05   7.8696554106E+00   7.7785167795E+00
 14   2   1.8613242459E+02   1.1718508477E+04   7.1385073956E+05   7.8696637256E+00   7.7785218367E+00
 14   3   1.8613364167E+02   1.1718553597E+04   7.1385259179E+05   7.8696559505E+00   7.7785171079E+00
 14   4   1.8613349955E+02   1.1718541947E+04   7.1385183233E+05   7.8696553578E+00   7.7785167474E+00
 14   5   1.8613364051E+02   1.1718553502E+04   7.1385258816E+05   7.8696559527E+00   7.7785171092E+00
 14   6   1.8613242462E+02   1.1718508481E+04   7.1385074024E+05   7.8696637270E+00   7.7785218376E+00
 14   7   1.8167644056E+02   1.1301836557E+04   6.8688745357E+05   7.8415451921E+00   7.7614201446E+00
 14   8   1.8167631077E+02   1.1301828940E+04   6.8688692652E+05   7.8415450894E+00   7.7614200822E+00
 14   9   1.8167527741E+02   1.1301799024E+04   6.8688617864E+05   7.8415541167E+00   7.7614255726E+00
 14  10   1.8167645517E+02   1.1301837745E+04   6.8688753704E+05   7.8415452726E+00   7.7614201936E+00
 14  11   1.8167529064E+02   1.1301800068E+04   6.8688624940E+05   7.8415541760E+00   7.7614256086E+00
 14  12   1.8167630520E+02   1.1301828431E+04   6.8688688508E+05   7.8415450312E+00   7.7614200468E+00
 14  13   1.0684724499E+02   6.2154151972E+03   3.3114762793E+05   7.4625012005E+00   7.5308855890E+00
 14  14   1.0684781258E+02   6.2154362338E+03   3.3114842257E+05   7.4624957411E+00   7.5308822685E+00
 15   1   1.8613031078E+02   1.1718519246E+04   7.1385540685E+05   7.8696990039E+00   7.7785432930E+00
 15   2   1.8612922896E+02   1.1718485160E+04   7.1385426857E+05   7.8697073190E+00   7.7785483502E+00
 15   3   1.8613044601E+02   1.1718530280E+04   7.1385612080E+05   7.8696995438E+00   7.7785436214E+00
 15   4   1.8613030389E+02   1.1718518630E+04   7.1385536133E+05   7.8696989512E+00   7.7785432609E+00
 15   5   1.8613044485E+02   1.1718530184E+04   7.1385611717E+05   7.8696995461E+00   7.7785436227E+00
 15   6   1.8612922900E+02   1.1718485164E+04   7.1385426926E+05   7.8697073205E+00   7.7785483511E+00
 15   7   1.8167333280E+02   1.1301816842E+04   6.8689086775E+05   7.8415885368E+00   7.7614465069E+00
 15   8   1.8167320301E+02   1.1301809225E+04   6.8689034070E+05   7.8415884341E+00   7.7614464444E+00
 15   9   1.8167216968E+02   1.1301779309E+04   6.8688959284E+05   7.8415974614E+00   7.7614519349E+00
 15  10   1.8167334741E+02   1.1301818030E+04   6.8689095122E+05   7.8415886173E+00   7.7614465559E+00
 15  11   1.8167218291E+02   1.1301780353E+04   6.8688966360E+05   7.8415975207E+00   7.7614519709E+00
 15  12   1.8167319744E+02   1.1301808716E+04   6.8689029926E+05   7.8415883759E+00   7.7614464090E+00
 15  13   1.0684524619E+02   6.2154010310E+03   3.3114958186E+05   7.4625473347E+00   7.5309136478E+00
 15  14   1.0684581377E+02   6.2154220676E+03   3.3115037650E+05   7.4625418752E+00   7.5309103273E+00
 15  15   1.0684381503E+02   6.2154079014E+03   3.3115233051E+05   7.4625880095E+00   7.5309383862E+00
 16   1   1.8613253671E+02   1.1718502411E+04   7.1385002919E+05   7.8696605757E+00   7.7785199209E+00
 16   2   1.8613145487E+02   1.1718468324E+04   7.1384889090E+05   7.8696688907E+00   7.7785249781E+00
 16   3   1.8613267195E+02   1.1718513444E+04   7.1385074313E+05   7.8696611156E+00   7.7785202493E+00
 16   4   1.8613252983E+02   1.1718501794E+04   7.1384998367E+05   7.8696605229E+00   7.7785198888E+00
 16   5   1.8613267078E+02   1.1718513349E+04   7.1385073950E+05   7.8696611178E+00   7.7785202506E+00
 16   6   1.8613145491E+02   1.1718468328E+04   7.1384889159E+05   7.8696688921E+00   7.7785249790E+00
 16   7   1.8167549477E+02   1.1301798119E+04   6.8688567478E+05   7.8415503285E+00   7.7614232686E+00
 16   8   1.8167536498E+02   1.1301790502E+04   6.8688514773E+05   7.8415502258E+00   7.7614232062E+00
 16   9   1.8167433163E+02   1.1301760586E+04   6.8688439985E+05   7.8415592531E+00   7.7614286966E+00
 16  10   1.8167550939E+02   1.1301799307E+04   6.8688575825E+05   7.8415504090E+00   7.7614233176E+00
 16  11   1.8167434486E+02   1.1301761630E+04   6.8688447061E+05   7.8415593124E+00   7.7614287326E+00
 16  12   1.8167535942E+02   1.1301789992E+04   6.8688510629E+05   7.8415501676E+00   7.7614231707E+00
 16  13   1.0684667801E+02   6.2153942119E+03   3.3114683719E+05   7.4625066712E+00   7.5308889162E+00
 16  14   1.0684724560E+02   6.2154152484E+03   3.3114763183E+05   7.4625012118E+00   7.5308855958E+00
 16  15   1.0684524680E+02   6.2154010822E+03   3.3114958576E+05   7.4625473459E+00   7.5309136546E+00
 16  16   1.0684667862E+02   6.2153942631E+03   3.3114684108E+05   7.4625066824E+00   7.5308889231E+00
 17   1   1.8613029595E+02   1.1718518154E+04   7.1385533154E+05   7.8696989531E+00   7.7785432621E+00
 17   2   1.8612921413E+02   1.1718484067E+04   7.1385419326E+05   7.8697072681E+00   7.7785483193E+00
 17   3   1.8613043119E+02   1.1718529187E+04   7.1385604548E+05   7.8696994929E+00   7.7785435904E+00
 17   4   1.8613028907E+02   1.1718517538E+04   7.1385528601E+05   7.8696989003E+00   7.7785432300E+00
 17   5   1.8613043003E+02   1.1718529092E+04   7.1385604185E+05   7.8696994952E+00   7.7785435918E+00
 17   6   1.8612921417E+02   1.1718484071E+04   7.1385419394E+05   7.8697072696E+00   7.7785483202E+00
 17   7   1.8167331832E+02   1.1301815786E+04   6.8689079523E+05   7.8415884860E+00   7.7614464760E+00
 17   8   1.8167318853E+02   1.1301808169E+04   6.8689026817E+05   7.8415883833E+00   7.7614464135E+00
 17   9   1.8167215521E+02   1.1301778253E+04   6.8688952032E+05   7.8415974106E+00   7.7614519040E+00
 17  10   1.8167333294E+02   1.1301816974E+04   6.8689087869E+05   7.8415885665E+00   7.7614465250E+00
 17  11   1.8167216843E+02   1.1301779298E+04   6.8688959108E+05   7.8415974699E+00   7.7614519400E+00
 17  12   1.8167318297E+02   1.1301807660E+04   6.8689022674E+05   7.8415883251E+00   7.7614463781E+00
 17  13   1.0684523774E+02   6.2154004477E+03   3.3114954588E+05   7.4625472796E+00   7.5309136143E+00
 17  14   1.0684580532E+02   6.2154214843E+03   3.3115034052E+05   7.4625418201E+00   7.5309102938E+00
 17  15   1.0684380658E+02   6.2154073181E+03   3.3115229452E+05   7.4625879544E+00   7.5309383527E+00
 17  16   1.0684523835E+02   6.2154004989E+03   3.3114954977E+05   7.4625472908E+00   7.5309136211E+00
 17  17   1.0684379812E+02   6.2154067348E+03   3.3115225854E+05   7.4625878993E+00   7.5309383192E+00
 18   1   1.8613350441E+02   1.1718542379E+04   7.1385186036E+05   7.8696553838E+00   7.7785167632E+00
 18   2   1.8613242257E+02   1.1718508293E+04   7.1385072207E+05   7.8696636988E+00   7.7785218204E+00
 18   3   1.8613363965E+02   1.1718553413E+04   7.1385257430E+05   7.8696559237E+00   7.7785170916E+00
 18   4   1.8613349753E+02   1.1718541763E+04   7.1385181484E+05   7.8696553310E+00   7.7785167311E+00
 18   5   1.8613363848E+02   1.1718553317E+04   7.1385257067E+05   7.8696559259E+00   7.7785170929E+00
 18   6   1.8613242260E+02   1.1718508297E+04   7.1385072275E+05   7.8696637002E+00   7.7785218213E+00
 18   7   1.8167643858E+02   1.1301836379E+04   6.8688743669E+05   7.8415451652E+00   7.7614201283E+00
 18   8   1.8167630879E+02   1.1301828762E+04   6.8688690964E+05   7.8415450625E+00   7.7614200658E+00
 18   9   1.8167527544E+02   1.1301798846E+04   6.8688616176E+05   7.8415540898E+00   7.7614255562E+00
 18  10   1.8167645320E+02   1.1301837567E+04   6.8688752015E+05   7.8415452457E+00   7.7614201773E+00
 18  11   1.8167528867E+02   1.1301799890E+04   6.8688623251E+05   7.8415541491E+00   7.7614255923E+00
 18  12   1.8167630323E+02   1.1301828252E+04   6.8688686820E+05   7.8415450043E+00   7.7614200304E+00
 18  13   1.0684724381E+02   6.2154150963E+03   3.3114761900E+05   7.4625011708E+00   7.5308855709E+00
 18  14   1.0684781141E+02   6.2154361328E+03   3.3114841364E+05   7.4624957114E+00   7.5308822505E+00
 18  15   1.0684581260E+02   6.2154219667E+03   3.3115036757E+05   7.4625418455E+00   7.5309103092E+00
 18  16   1.0684724442E+02   6.2154151474E+03   3.3114762289E+05   7.4625011821E+00   7.5308855777E+00
 18  17   1.0684580414E+02   6.2154213834E+03   3.3115033158E+05   7.4625417904E+00   7.5309102757E+00
 18  18   1.0684781023E+02   6.2154360319E+03   3.3114840470E+05   7.4624956817E+00   7.5308822324E+00
 19   1   1.8586313063E+02   1.1682223245E+04   7.0985074555E+05   7.8614707246E+00   7.7735388535E+00
 19   2   1.8586205274E+02   1.1682189470E+04   7.0984962866E+05   7.8614790478E+00   7.7735439157E+00
 19   3   1.8586326608E+02   1.1682234274E+04   7.0985145738E+05   7.8614712649E+00   7.7735391821E+00
 19   4   1.8586312374E+02   1.1682222630E+04   7.0985070018E+05   7.8614706718E+00   7.7735388214E+00
 19   5   1.8586326492E+02   1.1682234179E+04   7.0985145376E+05   7.8614712671E+00   7.7735391835E+00
 19   6   1.8586205278E+02   1.1682189475E+04   7.0984962934E+05   7.8614790493E+00   7.7735439166E+00
 19   7   1.8141671234E+02   1.1266843802E+04   6.8303851979E+05   7.8333448610E+00   7.7564327033E+00
 19   8   1.8141658260E+02   1.1266836201E+04   6.8303799495E+05   7.8333447578E+00   7.7564326405E+00
 19   9   1.8141555427E+02   1.1266806655E+04   6.8303727114E+05   7.8333537948E+00   7.7564381368E+00
 19  10   1.8141672695E+02   1.1266844988E+04   6.8303860291E+05   7.8333449417E+00   7.7564327523E+00
 19  11   1.8141556749E+02   1.1266807697E+04   6.8303734159E+05   7.8333538542E+00   7.7564381729E+00
 19  12   1.8141657704E+02   1.1266835692E+04   6.8303795365E+05   7.8333446995E+00   7.7564326050E+00
 19  13   1.0663174810E+02   6.1918085741E+03   3.2887807392E+05   7.4534782813E+00   7.5253978495E+00
 19  14   1.0663231393E+02   6.1918294736E+03   3.2887885886E+05   7.4534728148E+00   7.5253945247E+00
 19  15   1.0663032899E+02   6.1918161144E+03   3.2888084941E+05   7.4535190078E+00   7.5254226193E+00
 19  16   1.0663174871E+02   6.1918086251E+03   3.2887807779E+05   7.4534782925E+00   7.5253978563E+00
 19  17   1.0663032055E+02   6.1918155330E+03   3.2888081363E+05   7.4535189526E+00   7.5254225858E+00
 19  18   1.0663231276E+02   6.1918293730E+03   3.2887884997E+05   7.4534727850E+00   7.5253945066E+00
 19  19   1.0642085684E+02   6.1685017235E+03   3.2663031475E+05   7.4444296714E+00   7.5198944850E+00
 20   1   1.8586795098E+02   1.1682273268E+04   7.0984676174E+05   7.8614085935E+00   7.7735010654E+00
 20   2   1.8586687306E+02   1.1682239492E+04   7.0984564483E+05   7.8614169167E+00   7.7735061275E+00
 20   3   1.8586808644E+02   1.1682284297E+04   7.0984747356E+05   7.8614091338E+00   7.7735013940E+00
 20   4   1.8586794410E+02   1.1682272652E+04   7.0984671638E+05   7.8614085407E+00   7.7735010332E+00
 20   5   1.8586808527E+02   1.1682284201E+04   7.0984746994E+05   7.8614091360E+00   7.7735013953E+00
 20   6   1.8586687310E+02   1.1682239497E+04   7.0984564551E+05   7.8614169181E+00   7.7735061284E+00
 20   7   1.8142140105E+02   1.1266888089E+04   6.8303466013E+05   7.8332830856E+00   7.7563951315E+00
 20   8   1.8142127131E+02   1.1266880488E+04   6.8303413529E+05   7.8332829824E+00   7.7563950687E+00
 20   9   1.8142024294E+02   1.1266850942E+04   6.8303341144E+05   7.8332920193E+00   7.7564005650E+00
 20  10   1.8142141567E+02   1.1266889275E+04   6.8303474325E+05   7.8332831662E+00   7.7563951805E+00
 20  11   1.8142025616E+02   1.1266851984E+04   6.8303348189E+05   7.8332920787E+00   7.7564006011E+00
 20  12   1.8142126575E+02   1.1266879979E+04   6.8303409400E+05   7.8332829240E+00   7.7563950332E+00
 20  13   1.0663474932E+02   6.1918377231E+03   3.2887577955E+05   7.4534125115E+00   7.5253578483E+00
 20  14   1.0663531517E+02   6.1918586225E+03   3.2887656449E+05   7.4534070450E+00   7.5253545236E+00
 20  15   1.0663333014E+02   6.1918452634E+03   3.2887855493E+05   7.4534532378E+00   7.5253826180E+00
 20  16   1.0663474993E+02   6.1918377741E+03   3.2887578342E+05   7.4534125228E+00   7.5253578552E+00
 20  17   1.0663332170E+02   6.1918446820E+03   3.2887851915E+05   7.4534531826E+00   7.5253825845E+00
 20  18   1.0663531400E+02   6.1918585219E+03   3.2887655560E+05   7.4534070153E+00   7.5253545055E+00
 20  19   1.0642383803E+02   6.1685296862E+03   3.2662796478E+05   7.4443638173E+00   7.5198544325E+00
 20  20   1.0642681936E+02   6.1685576488E+03   3.2662561497E+05   7.4442979636E+00   7.5198143803E+00
 21   1   1.8586796862E+02   1.1682274595E+04   7.0984685237E+05   7.8614086580E+00   7.7735011046E+00
 21   2   1.8586689070E+02   1.1682240819E+04   7.0984573546E+05   7.8614169811E+00   7.7735061667E+00
 21   3   1.8586810408E+02   1.1682285624E+04   7.0984756419E+05   7.8614091983E+00   7.7735014332E+00
 21   4   1.8586796173E+02   1.1682273979E+04   7.0984680701E+05   7.8614086052E+00   7.7735010725E+00
 21   5   1.8586810291E+02   1.1682285528E+04   7.0984756057E+05   7.8614092005E+00   7.7735014345E+00
 21   6   1.8586689073E+02   1.1682240824E+04   7.0984573614E+05   7.8614169826E+00   7.7735061676E+00
 21   7   1.8142141828E+02   1.1266889372E+04   6.8303474740E+05   7.8332831499E+00   7.7563951706E+00
 21   8   1.8142128853E+02   1.1266881771E+04   6.8303422255E+05   7.8332830467E+00   7.7563951078E+00
 21   9   1.8142026016E+02   1.1266852225E+04   6.8303349871E+05   7.8332920837E+00   7.7564006041E+00
 21  10   1.8142143289E+02   1.1266890558E+04   6.8303483052E+05   7.8332832306E+00   7.7563952196E+00
 21  11   1.8142027338E+02   1.1266853267E+04   6.8303356916E+05   7.8332921430E+00   7.7564006402E+00
 21  12   1.8142128297E+02   1.1266881262E+04   6.8303418126E+05   7.8332829884E+00   7.7563950723E+00
 21  13   1.0663475931E+02   6.1918384282E+03   3.2887582258E+05   7.4534125809E+00   7.5253578905E+00
 21  14   1.0663532516E+02   6.1918593277E+03   3.2887660752E+05   7.4534071144E+00   7.5253545658E+00
 21  15   1.0663334013E+02   6.1918459686E+03   3.2887859797E+05   7.4534533072E+00   7.5253826602E+00
 21  16   1.0663475992E+02   6.1918384793E+03   3.2887582646E+05   7.4534125922E+00   7.5253578974E+00
 21  17   1.0663333169E+02   6.1918453872E+03   3.2887856219E+05   7.4534532520E+00   7.5253826267E+00
 21  18   1.0663532399E+02   6.1918592271E+03   3.2887659863E+05   7.4534070847E+00   7.5253545477E+00
 21  19   1.0642384800E+02   6.1685303893E+03   3.2662800758E+05   7.4443638868E+00   7.5198544748E+00
 21  20   1.0642682933E+02   6.1685583519E+03   3.2662565776E+05   7.4442980331E+00   7.5198144225E+00
 21  21   1.0642683931E+02   6.1685590551E+03   3.2662570056E+05   7.4442981026E+00   7.5198144648E+00
 
+ van der Waals energy
  Evdw   =  -3.923869443793E-01 Hartree,  -7.847738887585E-01 Ry
  Evdw6 =  -1.487279215092E-01 Hartree,  -2.974558430184E-01 Ry
  Evdw8 =  -1.256105125051E-01 Hartree,  -2.512210250102E-01 Ry
  Evdw10 =  -1.180485103650E-01 Hartree,  -2.360970207299E-01 Ry
  Evdw9  =   0.000000000000E+00 Hartree,   0.000000000000E+00 Ry
  Fvdw (01) =  -3.100723351751E-10  -2.323263638319E-10  -6.838903653028E-04  Hartree/bohr
            =  -6.201446703502E-10  -4.646527276637E-10  -1.367780730606E-03  Ry/bohr
  Fvdw (02) =  -2.937992243026E-10  -2.534530011747E-10  -6.839626948768E-04  Hartree/bohr
            =  -5.875984486053E-10  -5.069060023494E-10  -1.367925389754E-03  Ry/bohr
  Fvdw (03) =  -3.100497263212E-10  -2.323763728423E-10  -6.840084523372E-04  Hartree/bohr
            =  -6.200994526425E-10  -4.647527456846E-10  -1.368016904674E-03  Ry/bohr
  Fvdw (04) =   2.083104852783E-10   8.578445460028E-11   6.838904061746E-04  Hartree/bohr
            =   4.166209705566E-10   1.715689092006E-10   1.367780812349E-03  Ry/bohr
  Fvdw (05) =   2.083075551598E-10   8.578264686087E-11   6.840086654006E-04  Hartree/bohr
            =   4.166151103195E-10   1.715652937217E-10   1.368017330801E-03  Ry/bohr
  Fvdw (06) =   2.496104912996E-10   8.340954091186E-11   6.839627684235E-04  Hartree/bohr
            =   4.992209825993E-10   1.668190818237E-10   1.367925536847E-03  Ry/bohr
  Fvdw (07) =  -1.861961173023E-10  -1.448327727324E-10  -3.900948147873E-05  Hartree/bohr
            =  -3.723922346047E-10  -2.896655454648E-10  -7.801896295746E-05  Ry/bohr
  Fvdw (08) =  -1.865202517652E-10  -1.734614312010E-10  -3.897295131225E-05  Hartree/bohr
            =  -3.730405035304E-10  -3.469228624020E-10  -7.794590262449E-05  Ry/bohr
  Fvdw (09) =  -1.873939630407E-10  -1.427450997106E-10  -3.906119421261E-05  Hartree/bohr
            =  -3.747879260814E-10  -2.854901994211E-10  -7.812238842523E-05  Ry/bohr
  Fvdw (10) =   3.809680207303E-10   3.378157079176E-10   3.900948671842E-05  Hartree/bohr
            =   7.619360414606E-10   6.756314158353E-10   7.801897343683E-05  Ry/bohr
  Fvdw (11) =   3.892803195077E-10   3.232487773424E-10   3.906098108633E-05  Hartree/bohr
            =   7.785606390153E-10   6.464975546847E-10   7.812196217267E-05  Ry/bohr
  Fvdw (12) =   3.953124623264E-10   3.128355581974E-10   3.897283871144E-05  Hartree/bohr
            =   7.906249246529E-10   6.256711163947E-10   7.794567742288E-05  Ry/bohr
  Fvdw (13) =   3.678993245294E-11   2.542244030101E-11   2.559495139371E-04  Hartree/bohr
            =   7.357986490589E-11   5.084488060203E-11   5.118990278741E-04  Ry/bohr
  Fvdw (14) =   5.982157455147E-11  -1.490396611104E-11   2.559713046819E-04  Hartree/bohr
            =   1.196431491029E-10  -2.980793222209E-11   5.119426093638E-04  Ry/bohr
  Fvdw (15) =   6.098315607124E-11  -1.691629527776E-11   2.560352966421E-04  Hartree/bohr
            =   1.219663121425E-10  -3.383259055552E-11   5.120705932842E-04  Ry/bohr
  Fvdw (16) =   1.480546286262E-10   2.321661232215E-10  -2.559496335298E-04  Hartree/bohr
            =   2.961092572523E-10   4.643322464429E-10  -5.118992670595E-04  Ry/bohr
  Fvdw (17) =   1.685175694722E-10   2.417712407103E-10  -2.560352246643E-04  Hartree/bohr
            =   3.370351389443E-10   4.835424814206E-10  -5.120704493287E-04  Ry/bohr
  Fvdw (18) =   1.684849121520E-10   2.418443785612E-10  -2.559712198644E-04  Hartree/bohr
            =   3.369698243040E-10   4.836887571225E-10  -5.119424397288E-04  Ry/bohr
  Fvdw (19) =  -3.296229320586E-10  -2.588177926276E-10  -8.532534197174E-11  Hartree/bohr
            =  -6.592458641172E-10  -5.176355852552E-10  -1.706506839435E-10  Ry/bohr
  Fvdw (20) =  -3.253976996405E-10  -2.661959295733E-10  -1.192179216412E-08  Hartree/bohr
            =  -6.507953992810E-10  -5.323918591466E-10  -2.384358432825E-08  Ry/bohr
  Fvdw (21) =  -3.453888727698E-10  -2.340519123815E-10   1.196292043583E-08  Hartree/bohr
            =  -6.907777455397E-10  -4.681038247630E-10   2.392584087166E-08  Ry/bohr
  sigma_vdw (Hy/bohr**3) =  -1.063998690410E-04  -3.737216728806E-13   1.043908901972E-13  
                            -3.737216728806E-13  -1.063998689695E-04   7.959805276534E-13  
                             1.043908901972E-13   7.959805276534E-13  -1.140708683396E-04  
  sigma_vdw (Ry/bohr**3) =  -2.127997380820E-04  -7.474433457612E-13   2.087817803944E-13  
                            -7.474433457612E-13  -2.127997379391E-04   1.591961055307E-12  
                             2.087817803944E-13   1.591961055307E-12  -2.281417366792E-04  
  sigma_vdw (GPa) =  -3.130391696570E+00  -1.099526937540E-08   3.071285508302E-09  
                     -1.099526937540E-08  -3.130391694467E+00   2.341855170364E-08  
                      3.071285508302E-09   2.341855170364E-08  -3.356080249809E+00  
 

!    total energy              =  -12624.22549919 Ry
     Harris-Foulkes estimate   =  -12624.22549920 Ry
     estimated scf accuracy    <          7.4E-09 Ry

     total all-electron energy =   -560527.523450 Ry

     The total energy is the sum of the following terms:

     one-electron contribution =    -602.81605490 Ry
     hartree contribution      =     517.55540168 Ry
     xc contribution           =    -676.45868368 Ry
     ewald contribution        =   -1388.62314204 Ry
     Dispersion XDM Correction =      -0.78477389 Ry
     Uncorrected (XDM) energy  =  -12623.44072530 Ry
     one-center paw contrib.   =  -10473.09824636 Ry

     convergence has been achieved in  24 iterations

     Forces acting on atoms (Ry/au):

     atom    1 type  2   force =    -0.00224089    0.00129368   -0.01588159
     atom    2 type  2   force =    -0.00224112    0.00129381   -0.01586427
     atom    3 type  2   force =    -0.00224098    0.00129374   -0.01586979
     atom    4 type  2   force =     0.00224089   -0.00129368    0.01588159
     atom    5 type  2   force =     0.00224098   -0.00129374    0.01586979
     atom    6 type  2   force =     0.00224112   -0.00129381    0.01586427
     atom    7 type  2   force =     0.00090364   -0.00052176    0.00883489
     atom    8 type  2   force =     0.00090372   -0.00052181    0.00881677
     atom    9 type  2   force =     0.00090366   -0.00052177    0.00884080
     atom   10 type  2   force =    -0.00090364    0.00052176   -0.00883489
     atom   11 type  2   force =    -0.00090366    0.00052177   -0.00884080
     atom   12 type  2   force =    -0.00090372    0.00052181   -0.00881677
     atom   13 type  1   force =     0.00235779   -0.00136132    0.00456290
     atom   14 type  1   force =     0.00235761   -0.00136122    0.00457710
     atom   15 type  1   force =     0.00235728   -0.00136103    0.00458877
     atom   16 type  1   force =    -0.00235779    0.00136132   -0.00456290
     atom   17 type  1   force =    -0.00235728    0.00136103   -0.00458877
     atom   18 type  1   force =    -0.00235761    0.00136122   -0.00457710
     atom   19 type  1   force =     0.00000000    0.00000000    0.00000000
     atom   20 type  1   force =     0.00000012   -0.00000007   -0.00000555
     atom   21 type  1   force =    -0.00000012    0.00000007    0.00000555

     Total force =     0.046864     Total SCF correction =     0.000481

     Total XDM Dispersion Force =     0.003583

     XDM Dispersion forces acting on atoms:
     atom    1 type  2   force =     0.00000000    0.00000000   -0.00136778
     atom    2 type  2   force =     0.00000000    0.00000000   -0.00136793
     atom    3 type  2   force =     0.00000000    0.00000000   -0.00136802
     atom    4 type  2   force =     0.00000000    0.00000000    0.00136778
     atom    5 type  2   force =     0.00000000    0.00000000    0.00136802
     atom    6 type  2   force =     0.00000000    0.00000000    0.00136793
     atom    7 type  2   force =     0.00000000    0.00000000   -0.00007802
     atom    8 type  2   force =     0.00000000    0.00000000   -0.00007795
     atom    9 type  2   force =     0.00000000    0.00000000   -0.00007812
     atom   10 type  2   force =     0.00000000    0.00000000    0.00007802
     atom   11 type  2   force =     0.00000000    0.00000000    0.00007812
     atom   12 type  2   force =     0.00000000    0.00000000    0.00007795
     atom   13 type  1   force =     0.00000000    0.00000000    0.00051190
     atom   14 type  1   force =     0.00000000    0.00000000    0.00051194
     atom   15 type  1   force =     0.00000000    0.00000000    0.00051207
     atom   16 type  1   force =     0.00000000    0.00000000   -0.00051190
     atom   17 type  1   force =     0.00000000    0.00000000   -0.00051207
     atom   18 type  1   force =     0.00000000    0.00000000   -0.00051194
     atom   19 type  1   force =     0.00000000    0.00000000    0.00000000
     atom   20 type  1   force =     0.00000000    0.00000000   -0.00000002
     atom   21 type  1   force =     0.00000000    0.00000000    0.00000002


     entering subroutine stress ...

          total   stress  (Ry/bohr**3)                   (kbar)     P=    6.79
  -0.00005495  -0.00000876   0.00001872         -8.08     -1.29      2.75
  -0.00000876  -0.00006507  -0.00001081         -1.29     -9.57     -1.59
   0.00001872  -0.00001081   0.00025844          2.75     -1.59     38.02


     BFGS Geometry Optimization

     number of scf cycles    =   1
     number of bfgs steps    =   0

     enthalpy new            =  -12624.2254991881 Ry

     new trust radius        =       0.0828222919 bohr
     new conv_thr            =       0.0000000100 Ry

     new unit-cell volume =   4093.39808 a.u.^3 (   606.57901 Ang^3 )

CELL_PARAMETERS (alat=  1.00000000)
   8.586427244  -0.001883762   0.004025023
  -4.294844807   7.435121983  -0.004025000
   0.029826376  -0.017220067  64.126650518

ATOMIC_POSITIONS (crystal)
bi       0.999826226   1.000173725   0.144338550
bi       0.333159538   0.666840413   0.477672152
bi       0.666492888   0.333507063   0.811005405
bi       1.000173644   0.999826205   0.855661460
bi       0.333506982   0.666492867   0.188994605
bi       0.666840322   0.333159527   0.522327848
bi       1.000070021   0.999929910   0.285515793
bi       0.333403367   0.666596574   0.618848838
bi       0.666736692   0.333263239   0.952182545
bi       0.999929819   1.000069990   0.714484217
bi       0.333263148   0.666736661   0.047817455
bi       0.666596473   0.333403336   0.381151162
se       1.000182749   0.999817152   0.418836124
se       0.333516075   0.666483835   0.752169687
se       0.666849380   0.333150531   0.085503200
se       0.999817061   1.000182728   0.581163876
se       0.333150430   0.666849349   0.914496810
se       0.666483735   0.333516045   0.247830323
se       0.000000000   0.000000000   0.000000000
se       0.333333339   0.666666660   0.333333243
se       0.666666661   0.333333340   0.666666757



     Writing output data file crystal.save
     NEW-OLD atomic charge density approx. for the potential
     NEW k-points:
        k(    1) = (   0.0145616   0.0252256   0.0038985), wk =   0.1250000
        k(    2) = (   0.0145689   0.0588541   0.0039076), wk =   0.1250000
        k(    3) = (   0.0145468  -0.0420313   0.0038805), wk =   0.1250000
        k(    4) = (   0.0145542  -0.0084029   0.0038895), wk =   0.1250000
        k(    5) = (   0.0436810   0.0420462   0.0038895), wk =   0.1250000
        k(    6) = (   0.0436884   0.0756747   0.0038985), wk =   0.1250000
        k(    7) = (   0.0436662  -0.0252107   0.0038715), wk =   0.1250000
        k(    8) = (   0.0436736   0.0084177   0.0038805), wk =   0.1250000
        k(    9) = (  -0.0145652  -0.0252235   0.0038985), wk =   0.1250000
        k(   10) = (  -0.0145726  -0.0588519   0.0038895), wk =   0.1250000
        k(   11) = (  -0.0145505   0.0420334   0.0039166), wk =   0.1250000
        k(   12) = (  -0.0145578   0.0084050   0.0039076), wk =   0.1250000
        k(   13) = (  -0.0436846  -0.0420441   0.0039076), wk =   0.1250000
        k(   14) = (  -0.0436920  -0.0756726   0.0038985), wk =   0.1250000
        k(   15) = (  -0.0436699   0.0252128   0.0039256), wk =   0.1250000
        k(   16) = (  -0.0436773  -0.0084156   0.0039166), wk =   0.1250000
     extrapolated charge  234.80294, renormalised to  234.00000

     total cpu time spent up to now is    10370.9 secs

     per-process dynamical memory:   205.9 Mb

     Self-consistent Calculation

     iteration #  1     ecut=    60.00 Ry     beta=0.70
     Davidson diagonalization with overlap
     ethr =  1.00E-06,  avg # of iterations =  6.6

     total cpu time spent up to now is    10954.8 secs

     total energy              =  -12623.43911832 Ry
     Harris-Foulkes estimate   =  -12621.18394195 Ry
     estimated scf accuracy    <       0.06178547 Ry

     iteration #  2     ecut=    60.00 Ry     beta=0.70
     Davidson diagonalization with overlap
     ethr =  2.64E-05,  avg # of iterations =  4.4

     total cpu time spent up to now is    11404.5 secs

     total energy              =  -12623.41296011 Ry
     Harris-Foulkes estimate   =  -12623.47636479 Ry
     estimated scf accuracy    <       0.19652337 Ry

     iteration #  3     ecut=    60.00 Ry     beta=0.70
     Davidson diagonalization with overlap
     ethr =  2.64E-05,  avg # of iterations =  5.2

     total cpu time spent up to now is    11821.0 secs

     total energy              =  -12623.42850488 Ry
     Harris-Foulkes estimate   =  -12623.47397471 Ry
     estimated scf accuracy    <       0.23887294 Ry

     iteration #  4     ecut=    60.00 Ry     beta=0.70
     Davidson diagonalization with overlap
     ethr =  2.64E-05,  avg # of iterations =  5.1

     total cpu time spent up to now is    12222.4 secs

     total energy              =  -12623.44156313 Ry
     Harris-Foulkes estimate   =  -12623.45558435 Ry
     estimated scf accuracy    <       0.06557408 Ry

     iteration #  5     ecut=    60.00 Ry     beta=0.70
     Davidson diagonalization with overlap
     ethr =  2.64E-05,  avg # of iterations =  6.4

     total cpu time spent up to now is    12620.4 secs

     total energy              =  -12623.41207207 Ry
     Harris-Foulkes estimate   =  -12623.48221383 Ry
     estimated scf accuracy    <       1.77468541 Ry

     iteration #  6     ecut=    60.00 Ry     beta=0.70
     Davidson diagonalization with overlap
     ethr =  2.64E-05,  avg # of iterations =  5.7

     total cpu time spent up to now is    13018.8 secs

     total energy              =  -12623.43851463 Ry
     Harris-Foulkes estimate   =  -12623.46646887 Ry
     estimated scf accuracy    <       0.24861310 Ry

     iteration #  7     ecut=    60.00 Ry     beta=0.70
     Davidson diagonalization with overlap
     ethr =  2.64E-05,  avg # of iterations =  4.8

     total cpu time spent up to now is    13407.4 secs

     total energy              =  -12623.45277247 Ry
     Harris-Foulkes estimate   =  -12623.45400350 Ry
     estimated scf accuracy    <       0.00955284 Ry

     iteration #  8     ecut=    60.00 Ry     beta=0.70
     Davidson diagonalization with overlap
     ethr =  4.08E-06,  avg # of iterations =  3.7

     total cpu time spent up to now is    13783.2 secs

     total energy              =  -12623.45338573 Ry
     Harris-Foulkes estimate   =  -12623.45350435 Ry
     estimated scf accuracy    <       0.00269134 Ry

     iteration #  9     ecut=    60.00 Ry     beta=0.70
     Davidson diagonalization with overlap
     ethr =  1.15E-06,  avg # of iterations =  2.3

     total cpu time spent up to now is    14138.4 secs

     total energy              =  -12623.45342319 Ry
     Harris-Foulkes estimate   =  -12623.45345656 Ry
     estimated scf accuracy    <       0.00172897 Ry

     iteration # 10     ecut=    60.00 Ry     beta=0.70
     Davidson diagonalization with overlap
     ethr =  7.39E-07,  avg # of iterations =  1.6

     total cpu time spent up to now is    14488.1 secs

     total energy              =  -12623.45334621 Ry
     Harris-Foulkes estimate   =  -12623.45344154 Ry
     estimated scf accuracy    <       0.00121541 Ry

     iteration # 11     ecut=    60.00 Ry     beta=0.70
     Davidson diagonalization with overlap
     ethr =  5.19E-07,  avg # of iterations =  4.7

     total cpu time spent up to now is    14862.6 secs

     total energy              =  -12623.45340365 Ry
     Harris-Foulkes estimate   =  -12623.45345751 Ry
     estimated scf accuracy    <       0.00079928 Ry

     iteration # 12     ecut=    60.00 Ry     beta=0.70
     Davidson diagonalization with overlap
     ethr =  3.42E-07,  avg # of iterations =  3.9

     total cpu time spent up to now is    15229.0 secs

     total energy              =  -12623.45342865 Ry
     Harris-Foulkes estimate   =  -12623.45343980 Ry
     estimated scf accuracy    <       0.00005165 Ry

     iteration # 13     ecut=    60.00 Ry     beta=0.70
     Davidson diagonalization with overlap
     ethr =  2.21E-08,  avg # of iterations =  4.7

     total cpu time spent up to now is    15618.3 secs

     total energy              =  -12623.45343469 Ry
     Harris-Foulkes estimate   =  -12623.45343653 Ry
     estimated scf accuracy    <       0.00000919 Ry

     iteration # 14     ecut=    60.00 Ry     beta=0.70
     Davidson diagonalization with overlap
     ethr =  3.93E-09,  avg # of iterations =  4.9

     total cpu time spent up to now is    16012.9 secs

     total energy              =  -12623.45343539 Ry
     Harris-Foulkes estimate   =  -12623.45343643 Ry
     estimated scf accuracy    <       0.00000830 Ry

     iteration # 15     ecut=    60.00 Ry     beta=0.70
     Davidson diagonalization with overlap
     ethr =  3.55E-09,  avg # of iterations =  3.4

     total cpu time spent up to now is    16386.7 secs

     total energy              =  -12623.45343579 Ry
     Harris-Foulkes estimate   =  -12623.45343607 Ry
     estimated scf accuracy    <       0.00000359 Ry

[...]
 17  17   1.0938451361E+02   6.3355823434E+03   3.3639859232E+05   7.4480569391E+00   7.5221005892E+00
 18   1   1.9059602892E+02   1.2017810857E+04   7.3353062061E+05   7.8765432524E+00   7.7827059649E+00
 18   2   1.9059657449E+02   1.2017805927E+04   7.3352925743E+05   7.8765339369E+00   7.7827002992E+00
 18   3   1.9059657012E+02   1.2017807466E+04   7.3352937241E+05   7.8765342920E+00   7.7827005152E+00
 18   4   1.9059602072E+02   1.2017810115E+04   7.3353056829E+05   7.8765431965E+00   7.7827059309E+00
 18   5   1.9059656560E+02   1.2017807084E+04   7.3352935187E+05   7.8765342834E+00   7.7827005100E+00
 18   6   1.9059657459E+02   1.2017805936E+04   7.3352925807E+05   7.8765339376E+00   7.7827002997E+00
 18   7   1.8356237717E+02   1.1430786367E+04   6.9593542692E+05   7.8469507102E+00   7.7647077807E+00
 18   8   1.8356341020E+02   1.1430774338E+04   6.9593262184E+05   7.8469317357E+00   7.7646962405E+00
 18   9   1.8356344271E+02   1.1430768667E+04   6.9593182710E+05   7.8469291478E+00   7.7646946665E+00
 18  10   1.8356239345E+02   1.1430787649E+04   6.9593551464E+05   7.8469507835E+00   7.7647078253E+00
 18  11   1.8356345796E+02   1.1430769829E+04   6.9593190425E+05   7.8469292025E+00   7.7646946997E+00
 18  12   1.8356340584E+02   1.1430773927E+04   6.9593258660E+05   7.8469316830E+00   7.7646962084E+00
 18  13   1.0938350714E+02   6.3355929908E+03   3.3640103417E+05   7.4480877311E+00   7.5221193169E+00
 18  14   1.0938460486E+02   6.3356021052E+03   3.3640005102E+05   7.4480634887E+00   7.5221045726E+00
 18  15   1.0938456962E+02   6.3355928973E+03   3.3639936041E+05   7.4480602516E+00   7.5221026038E+00
 18  16   1.0938350724E+02   6.3355930022E+03   3.3640103540E+05   7.4480877362E+00   7.5221193200E+00
 18  17   1.0938456019E+02   6.3355922870E+03   3.3639932357E+05   7.4480602083E+00   7.5221025775E+00
 18  18   1.0938460677E+02   6.3356022307E+03   3.3640005481E+05   7.4480634775E+00   7.5221045658E+00
 19   1   1.8828708492E+02   1.1884339543E+04   7.2497051153E+05   7.8774466943E+00   7.7832554383E+00
 19   2   1.8828760728E+02   1.1884333659E+04   7.2496909720E+05   7.8774373685E+00   7.7832497663E+00
 19   3   1.8828760640E+02   1.1884335395E+04   7.2496922420E+05   7.8774377241E+00   7.7832499826E+00
 19   4   1.8828707675E+02   1.1884338804E+04   7.2497045951E+05   7.8774466384E+00   7.7832554043E+00
 19   5   1.8828760188E+02   1.1884335014E+04   7.2496920369E+05   7.8774377155E+00   7.7832499774E+00
 19   6   1.8828760738E+02   1.1884333668E+04   7.2496909784E+05   7.8774373692E+00   7.7832497667E+00
 19   7   1.8137794696E+02   1.1306429500E+04   6.8795077507E+05   7.8478106970E+00   7.7652308247E+00
 19   8   1.8137894599E+02   1.1306416327E+04   6.8794791363E+05   7.8477917010E+00   7.7652192714E+00
 19   9   1.8137898405E+02   1.1306411096E+04   6.8794715002E+05   7.8477891113E+00   7.7652176963E+00
 19  10   1.8137796310E+02   1.1306430772E+04   6.8795086202E+05   7.8478107704E+00   7.7652308694E+00
 19  11   1.8137899916E+02   1.1306412248E+04   6.8794722649E+05   7.8477891660E+00   7.7652177296E+00
 19  12   1.8137894165E+02   1.1306415919E+04   6.8794787867E+05   7.8477916483E+00   7.7652192393E+00
 19  13   1.0781631680E+02   6.2517579781E+03   3.3170152230E+05   7.4488136965E+00   7.5225608490E+00
 19  14   1.0781738022E+02   6.2517659543E+03   3.3170049084E+05   7.4487894227E+00   7.5225460857E+00
 19  15   1.0781734430E+02   6.2517568077E+03   3.3169980561E+05   7.4487861815E+00   7.5225441144E+00
 19  16   1.0781631690E+02   6.2517579894E+03   3.3170152352E+05   7.4488137016E+00   7.5225608521E+00
 19  17   1.0781733501E+02   6.2517562057E+03   3.3169976929E+05   7.4487861382E+00   7.5225440881E+00
 19  18   1.0781738212E+02   6.2517660795E+03   3.3170049466E+05   7.4487894116E+00   7.5225460789E+00
 19  19   1.0632026770E+02   6.1717980601E+03   3.2721403260E+05   7.4495207844E+00   7.5229908999E+00
 20   1   1.8828962747E+02   1.1884377284E+04   7.2496920195E+05   7.8774164838E+00   7.7832370643E+00
 20   2   1.8829014985E+02   1.1884371401E+04   7.2496778766E+05   7.8774071580E+00   7.7832313923E+00
 20   3   1.8829014897E+02   1.1884373137E+04   7.2496791465E+05   7.8774075136E+00   7.7832316086E+00
 20   4   1.8828961930E+02   1.1884376546E+04   7.2496914993E+05   7.8774164279E+00   7.7832370303E+00
 20   5   1.8829014445E+02   1.1884372756E+04   7.2496789415E+05   7.8774075050E+00   7.7832316034E+00
 20   6   1.8829014995E+02   1.1884371410E+04   7.2496778831E+05   7.8774071587E+00   7.7832313927E+00
 20   7   1.8138037116E+02   1.1306462380E+04   6.8794945044E+05   7.8477806526E+00   7.7652125517E+00
 20   8   1.8138137022E+02   1.1306449208E+04   6.8794658905E+05   7.8477616567E+00   7.7652009984E+00
 20   9   1.8138140828E+02   1.1306443975E+04   6.8794582542E+05   7.8477590670E+00   7.7651994234E+00
 20  10   1.8138038731E+02   1.1306463652E+04   6.8794953739E+05   7.8477807260E+00   7.7652125964E+00
 20  11   1.8138142339E+02   1.1306445128E+04   6.8794590188E+05   7.8477591217E+00   7.7651994566E+00
 20  12   1.8138136588E+02   1.1306448799E+04   6.8794655408E+05   7.8477616039E+00   7.7652009663E+00
 20  13   1.0781792661E+02   6.2517810407E+03   3.3170079273E+05   7.4487816486E+00   7.5225413575E+00
 20  14   1.0781899006E+02   6.2517890170E+03   3.3169976130E+05   7.4487573749E+00   7.5225265942E+00
 20  15   1.0781895414E+02   6.2517798703E+03   3.3169907607E+05   7.4487541337E+00   7.5225246230E+00
 20  16   1.0781792671E+02   6.2517810520E+03   3.3170079395E+05   7.4487816537E+00   7.5225413606E+00
 20  17   1.0781894485E+02   6.2517792683E+03   3.3169903975E+05   7.4487540904E+00   7.5225245966E+00
 20  18   1.0781899196E+02   6.2517891422E+03   3.3169976512E+05   7.4487573638E+00   7.5225265874E+00
 20  19   1.0632182487E+02   6.1718191453E+03   3.2721321336E+05   7.4494886959E+00   7.5229713837E+00
 20  20   1.0632338209E+02   6.1718402308E+03   3.2721239418E+05   7.4494566074E+00   7.5229518675E+00
 21   1   1.8828964914E+02   1.1884378885E+04   7.2496930942E+05   7.8774165492E+00   7.7832371040E+00
 21   2   1.8829017152E+02   1.1884373002E+04   7.2496789513E+05   7.8774072234E+00   7.7832314321E+00
 21   3   1.8829017063E+02   1.1884374737E+04   7.2496802212E+05   7.8774075790E+00   7.7832316483E+00
 21   4   1.8828964097E+02   1.1884378146E+04   7.2496925740E+05   7.8774164933E+00   7.7832370700E+00
 21   5   1.8829016612E+02   1.1884374356E+04   7.2496800162E+05   7.8774075704E+00   7.7832316431E+00
 21   6   1.8829017162E+02   1.1884373011E+04   7.2496789578E+05   7.8774072241E+00   7.7832314325E+00
 21   7   1.8138039206E+02   1.1306463907E+04   6.8794955253E+05   7.8477807177E+00   7.7652125913E+00
 21   8   1.8138139111E+02   1.1306450734E+04   6.8794669114E+05   7.8477617218E+00   7.7652010380E+00
 21   9   1.8138142918E+02   1.1306445502E+04   6.8794592751E+05   7.8477591321E+00   7.7651994630E+00
 21  10   1.8138040821E+02   1.1306465179E+04   6.8794963948E+05   7.8477807911E+00   7.7652126360E+00
 21  11   1.8138144429E+02   1.1306446654E+04   6.8794600398E+05   7.8477591868E+00   7.7651994962E+00
 21  12   1.8138138677E+02   1.1306450326E+04   6.8794665618E+05   7.8477616691E+00   7.7652010059E+00
 21  13   1.0781793887E+02   6.2517818845E+03   3.3170084293E+05   7.4487817189E+00   7.5225414002E+00
 21  14   1.0781900231E+02   6.2517898609E+03   3.3169981150E+05   7.4487574452E+00   7.5225266370E+00
 21  15   1.0781896640E+02   6.2517807142E+03   3.3169912627E+05   7.4487542040E+00   7.5225246657E+00
 21  16   1.0781793897E+02   6.2517818959E+03   3.3170084415E+05   7.4487817240E+00   7.5225414033E+00
 21  17   1.0781895711E+02   6.2517801122E+03   3.3169908995E+05   7.4487541607E+00   7.5225246393E+00
 21  18   1.0781900422E+02   6.2517899861E+03   3.3169981531E+05   7.4487574340E+00   7.5225266302E+00
 21  19   1.0632183699E+02   6.1718199799E+03   3.2721326299E+05   7.4494887662E+00   7.5229714264E+00
 21  20   1.0632339421E+02   6.1718410655E+03   3.2721244380E+05   7.4494566778E+00   7.5229519102E+00
 21  21   1.0632340633E+02   6.1718419001E+03   3.2721249342E+05   7.4494567481E+00   7.5229519530E+00
 
+ van der Waals energy
  Evdw   =  -3.823413744519E-01 Hartree,  -7.646827489038E-01 Ry
  Evdw6 =  -1.451667277437E-01 Hartree,  -2.903334554873E-01 Ry
  Evdw8 =  -1.223698826100E-01 Hartree,  -2.447397652199E-01 Ry
  Evdw10 =  -1.148047640983E-01 Hartree,  -2.296095281965E-01 Ry
  Evdw9  =   0.000000000000E+00 Hartree,   0.000000000000E+00 Ry
  Fvdw (01) =  -2.681705739672E-05   1.548273262069E-05  -1.107246597371E-03  Hartree/bohr
            =  -5.363411479344E-05   3.096546524138E-05  -2.214493194741E-03  Ry/bohr
  Fvdw (02) =  -2.681544928088E-05   1.548181734363E-05  -1.107251697202E-03  Hartree/bohr
            =  -5.363089856176E-05   3.096363468726E-05  -2.214503394403E-03  Ry/bohr
  Fvdw (03) =  -2.681624537615E-05   1.548228113471E-05  -1.107225901390E-03  Hartree/bohr
            =  -5.363249075231E-05   3.096456226941E-05  -2.214451802780E-03  Ry/bohr
  Fvdw (04) =   2.681697828757E-05  -1.548285299533E-05   1.107246979348E-03  Hartree/bohr
            =   5.363395657514E-05  -3.096570599066E-05   2.214493958697E-03  Ry/bohr
  Fvdw (05) =   2.681618512634E-05  -1.548236162431E-05   1.107225849173E-03  Hartree/bohr
            =   5.363237025268E-05  -3.096472324862E-05   2.214451698346E-03  Ry/bohr
  Fvdw (06) =   2.681541720632E-05  -1.548190837035E-05   1.107251761096E-03  Hartree/bohr
            =   5.363083441263E-05  -3.096381674070E-05   2.214503522191E-03  Ry/bohr
  Fvdw (07) =   8.722524099412E-06  -5.035901940959E-06   3.682417492607E-04  Hartree/bohr
            =   1.744504819882E-05  -1.007180388192E-05   7.364834985214E-04  Ry/bohr
  Fvdw (08) =   8.723648046074E-06  -5.036533438381E-06   3.682508586959E-04  Hartree/bohr
            =   1.744729609215E-05  -1.007306687676E-05   7.365017173919E-04  Ry/bohr
  Fvdw (09) =   8.723300528633E-06  -5.036321897571E-06   3.682647526512E-04  Hartree/bohr
            =   1.744660105727E-05  -1.007264379514E-05   7.365295053024E-04  Ry/bohr
  Fvdw (10) =  -8.722432627242E-06   5.035970309101E-06  -3.682414912425E-04  Hartree/bohr
            =  -1.744486525448E-05   1.007194061820E-05  -7.364829824850E-04  Ry/bohr
  Fvdw (11) =  -8.723189246558E-06   5.036427588920E-06  -3.682651667848E-04  Hartree/bohr
            =  -1.744637849312E-05   1.007285517784E-05  -7.365303335695E-04  Ry/bohr
  Fvdw (12) =  -8.723540127020E-06   5.036630793084E-06  -3.682512209687E-04  Hartree/bohr
            =  -1.744708025404E-05   1.007326158617E-05  -7.365024419375E-04  Ry/bohr
  Fvdw (13) =   1.354887318078E-05  -7.822349839355E-06   3.088915374808E-04  Hartree/bohr
            =   2.709774636156E-05  -1.564469967871E-05   6.177830749617E-04  Ry/bohr
  Fvdw (14) =   1.354977920769E-05  -7.822868447264E-06   3.088944902277E-04  Hartree/bohr
            =   2.709955841539E-05  -1.564573689453E-05   6.177889804554E-04  Ry/bohr
  Fvdw (15) =   1.355052976357E-05  -7.823308038878E-06   3.088793929139E-04  Hartree/bohr
            =   2.710105952715E-05  -1.564661607776E-05   6.177587858278E-04  Ry/bohr
  Fvdw (16) =  -1.354880954213E-05   7.822462911964E-06  -3.088915822571E-04  Hartree/bohr
            =  -2.709761908426E-05   1.564492582393E-05  -6.177831645142E-04  Ry/bohr
  Fvdw (17) =  -1.355042546257E-05   7.823423368859E-06  -3.088792437280E-04  Hartree/bohr
            =  -2.710085092514E-05   1.564684673772E-05  -6.177584874560E-04  Ry/bohr
  Fvdw (18) =  -1.354967099872E-05   7.822980905142E-06  -3.088943039613E-04  Hartree/bohr
            =  -2.709934199744E-05   1.564596181028E-05  -6.177886079225E-04  Ry/bohr
  Fvdw (19) =  -1.353746290169E-10  -9.592662983891E-11  -1.603508495631E-10  Hartree/bohr
            =  -2.707492580337E-10  -1.918532596778E-10  -3.207016991263E-10  Ry/bohr
  Fvdw (20) =   1.081687943771E-09  -8.213801599785E-10   5.093778787615E-09  Hartree/bohr
            =   2.163375887541E-09  -1.642760319957E-09   1.018755757523E-08  Ry/bohr
  Fvdw (21) =  -1.361701696465E-09   5.969230802802E-10  -5.099370110961E-09  Hartree/bohr
            =  -2.723403392930E-09   1.193846160560E-09  -1.019874022192E-08  Ry/bohr
  sigma_vdw (Hy/bohr**3) =  -1.051423011865E-04   3.117691104208E-07   1.962019465164E-07  
                             3.117691104208E-07  -1.047823018897E-04  -1.132775013223E-07  
                             1.962019465164E-07  -1.132775013223E-07  -1.016566670135E-04  
  sigma_vdw (Ry/bohr**3) =  -2.102846023729E-04   6.235382208416E-07   3.924038930329E-07  
                             6.235382208416E-07  -2.095646037793E-04  -2.265550026447E-07  
                             3.924038930329E-07  -2.265550026447E-07  -2.033133340270E-04  
  sigma_vdw (GPa) =  -3.093392779135E+00   9.172562365956E-03   5.772459588171E-03  
                      9.172562365956E-03  -3.082801235934E+00  -3.332738590223E-03  
                      5.772459588171E-03  -3.332738590223E-03  -2.990841898475E+00  
 

!    total energy              =  -12624.36042137 Ry
     Harris-Foulkes estimate   =  -12624.36042137 Ry
     estimated scf accuracy    <          9.7E-11 Ry

     total all-electron energy =   -560527.658372 Ry

     The total energy is the sum of the following terms:

     one-electron contribution =    -643.50530432 Ry
     hartree contribution      =     534.57315656 Ry
     xc contribution           =    -676.34099286 Ry
     ewald contribution        =   -1365.23224496 Ry
     Dispersion XDM Correction =      -0.76468275 Ry
     Uncorrected (XDM) energy  =  -12623.59573862 Ry
     one-center paw contrib.   =  -10473.09035304 Ry

     convergence has been achieved in  31 iterations

     Forces acting on atoms (Ry/au):

     atom    1 type  2   force =    -0.00034438    0.00019876   -0.00004604
     atom    2 type  2   force =    -0.00034332    0.00019815   -0.00004864
     atom    3 type  2   force =    -0.00034435    0.00019874   -0.00004428
     atom    4 type  2   force =     0.00034438   -0.00019876    0.00004604
     atom    5 type  2   force =     0.00034435   -0.00019874    0.00004428
     atom    6 type  2   force =     0.00034332   -0.00019815    0.00004864
     atom    7 type  2   force =     0.00051003   -0.00029449    0.00010260
     atom    8 type  2   force =     0.00051005   -0.00029450    0.00010410
     atom    9 type  2   force =     0.00051023   -0.00029461    0.00010058
     atom   10 type  2   force =    -0.00051003    0.00029449   -0.00010260
     atom   11 type  2   force =    -0.00051023    0.00029461   -0.00010058
     atom   12 type  2   force =    -0.00051005    0.00029450   -0.00010410
     atom   13 type  1   force =    -0.00054566    0.00031504    0.00024950
     atom   14 type  1   force =    -0.00054546    0.00031492    0.00024512
     atom   15 type  1   force =    -0.00054521    0.00031478    0.00024804
     atom   16 type  1   force =     0.00054566   -0.00031504   -0.00024950
     atom   17 type  1   force =     0.00054521   -0.00031478   -0.00024804
     atom   18 type  1   force =     0.00054546   -0.00031492   -0.00024512
     atom   19 type  1   force =     0.00000000    0.00000000    0.00000000
     atom   20 type  1   force =     0.00000024   -0.00000014   -0.00000164
     atom   21 type  1   force =    -0.00000024    0.00000014    0.00000164

     Total force =     0.002419     Total SCF correction =     0.000051

     Total XDM Dispersion Force =     0.005916

     XDM Dispersion forces acting on atoms:
     atom    1 type  2   force =    -0.00005363    0.00003097   -0.00221449
     atom    2 type  2   force =    -0.00005363    0.00003096   -0.00221450
     atom    3 type  2   force =    -0.00005363    0.00003096   -0.00221445
     atom    4 type  2   force =     0.00005363   -0.00003097    0.00221449
     atom    5 type  2   force =     0.00005363   -0.00003096    0.00221445
     atom    6 type  2   force =     0.00005363   -0.00003096    0.00221450
     atom    7 type  2   force =     0.00001745   -0.00001007    0.00073648
     atom    8 type  2   force =     0.00001745   -0.00001007    0.00073650
     atom    9 type  2   force =     0.00001745   -0.00001007    0.00073653
     atom   10 type  2   force =    -0.00001744    0.00001007   -0.00073648
     atom   11 type  2   force =    -0.00001745    0.00001007   -0.00073653
     atom   12 type  2   force =    -0.00001745    0.00001007   -0.00073650
     atom   13 type  1   force =     0.00002710   -0.00001564    0.00061778
     atom   14 type  1   force =     0.00002710   -0.00001565    0.00061779
     atom   15 type  1   force =     0.00002710   -0.00001565    0.00061776
     atom   16 type  1   force =    -0.00002710    0.00001564   -0.00061778
     atom   17 type  1   force =    -0.00002710    0.00001565   -0.00061776
     atom   18 type  1   force =    -0.00002710    0.00001565   -0.00061779
     atom   19 type  1   force =     0.00000000    0.00000000    0.00000000
     atom   20 type  1   force =     0.00000000    0.00000000    0.00000001
     atom   21 type  1   force =     0.00000000    0.00000000   -0.00000001


     entering subroutine stress ...

          total   stress  (Ry/bohr**3)                   (kbar)     P=   -0.21
  -0.00000486   0.00000303  -0.00000281         -0.71      0.45     -0.41
   0.00000303  -0.00000136   0.00000162          0.45     -0.20      0.24
  -0.00000281   0.00000162   0.00000197         -0.41      0.24      0.29


     Writing output data file crystal.save
 
     init_run     :    257.18s CPU    261.82s WALL (       2 calls)
     electrons    : 173067.72s CPU 175016.32s WALL (      20 calls)
     update_pot   :    579.21s CPU    584.23s WALL (      18 calls)
     forces       :   2086.27s CPU   2094.48s WALL (      20 calls)
     stress       :   8896.37s CPU   8908.58s WALL (      20 calls)

     Called by init_run:
     wfcinit      :    146.90s CPU    150.71s WALL (       2 calls)
     potinit      :     23.19s CPU     23.54s WALL (       2 calls)

     Called by electrons:
     c_bands      :  78991.26s CPU  80598.06s WALL (     441 calls)
     sum_band     :  78575.61s CPU  78875.09s WALL (     441 calls)
     v_of_rho     :    491.89s CPU    494.55s WALL (     461 calls)
     newd         :  13681.72s CPU  13694.56s WALL (     461 calls)
     mix_rho      :    462.54s CPU    465.65s WALL (     441 calls)

     Called by c_bands:
     init_us_2    :    387.15s CPU    387.61s WALL (   14784 calls)
     cegterg      :  77733.91s CPU  79139.48s WALL (    7056 calls)

     Called by *egterg:
     h_psi        :  61490.19s CPU  61711.52s WALL (   37928 calls)
     s_psi        :   2955.96s CPU   2958.74s WALL (   37928 calls)
     g_psi        :     99.97s CPU    100.02s WALL (   30840 calls)
     cdiaghg      :   2929.41s CPU   2936.97s WALL (   37608 calls)

     Called by h_psi:
     add_vuspsi   :   2960.83s CPU   2963.71s WALL (   37928 calls)

     General routines
     calbec       :   4577.99s CPU   4595.38s WALL (   45624 calls)
     fft          :    983.44s CPU    994.48s WALL (   10462 calls)
     ffts         :     15.53s CPU     15.69s WALL (    1804 calls)
     fftw         :  84489.44s CPU  84748.22s WALL ( 7484464 calls)
     interpolate  :    183.77s CPU    184.35s WALL (    1804 calls)
     davcio       :      1.08s CPU    350.90s WALL (   21840 calls)
 
     Parallel routines
     fft_scatter  :  18990.01s CPU  19150.37s WALL ( 7496730 calls)
 
     PAW routines
     PAW_pot      :    586.14s CPU    588.81s WALL (     461 calls)
     PAW_ddot     :    227.61s CPU    228.06s WALL (   14165 calls)
     PAW_symme    :      0.44s CPU      0.46s WALL (     884 calls)
 
     PWSCF        :     2d    3h30m CPU        2d    4h 3m WALL

 
   This run was terminated on:  18:23: 9  10Jul2014            

=------------------------------------------------------------------------------=
   JOB DONE.
=------------------------------------------------------------------------------=
