
     Program PWSCF v.4.3.2      starts on 23Nov2012 at  6:35:50 

     This program is part of the open-source Quantum ESPRESSO suite
     for quantum simulation of materials; please cite
         "P. Giannozzi et al., J. Phys.:Condens. Matter 21 395502 (2009);
          URL http://www.quantum-espresso.org", 
     in publications or presentations arising from this work. More details at
     http://www.quantum-espresso.org/wiki/index.php/Citing_Quantum-ESPRESSO

     Parallel version (MPI), running on    12 processors
     R & G space division:  proc/pool =   12

     Current dimensions of program PWSCF are:
     Max number of different atomic species (ntypx) = 10
     Max number of k-points (npk) =  40000
     Max angular momentum in pseudopotentials (lmaxx) =  3
     Waiting for input...
     Reading input from stdin
               file au.UPF: wavefunction(s)  6S 6P 5D renormalized
               file cl.UPF: wavefunction(s)  3S 3P renormalized

     Subspace diagonalization in iterative solution of the eigenvalue problem:
     a serial algorithm will be used

 
     Parallelization info
     --------------------
     sticks:   dense  smooth     PW     G-vecs:    dense   smooth      PW
     Min         430     172     48                29886     7548    1096
     Max         431     173     49                29889     7573    1099
     Sum        5169    2069    577               358657    90741   13171
 

     Title: 
     aucl_tet_srel_xdm                                                          


     bravais-lattice index     =            6
     lattice parameter (alat)  =      12.7254  a.u.
     unit-cell volume          =    2654.3750 (a.u.)^3
     number of atoms/cell      =           16
     number of atomic types    =            2
     number of electrons       =       144.00
     number of Kohn-Sham states=           86
     kinetic-energy cutoff     =      40.0000  Ry
     charge density cutoff     =     400.0000  Ry
     convergence threshold     =      1.0E-08
     mixing beta               =       0.7000
     number of iterations used =            8  plain     mixing
     Exchange-correlation      =  SLA  PW   B86B PBC ( 1 418 4 0)
     EXX-fraction              =        0.00
     nstep                     =           50


     celldm(1)=  12.725416  celldm(2)=   0.000000  celldm(3)=   1.288090
     celldm(4)=   0.000000  celldm(5)=   0.000000  celldm(6)=   0.000000

     crystal axes: (cart. coord. in units of alat)
               a(1) = (   1.000000   0.000000   0.000000 )  
               a(2) = (   0.000000   1.000000   0.000000 )  
               a(3) = (   0.000000   0.000000   1.288090 )  

     reciprocal axes: (cart. coord. in units 2 pi/alat)
               b(1) = (  1.000000  0.000000  0.000000 )  
               b(2) = (  0.000000  1.000000  0.000000 )  
               b(3) = (  0.000000  0.000000  0.776343 )  


     PseudoPot. # 1 for Au read from file:
     ./au.UPF
     MD5 check sum: 1dddbf28078098ca418f7b6100a87f75
     Pseudo is Projector augmented-wave + core cor, Zval = 11.0
     Generated using "atomic" code by A. Dal Corso  (Quantum ESPRESSO distribution)
     Shape of augmentation charge: BESSEL
     Using radial grid of 1279 points,  6 beta functions with: 
                l(1) =   0
                l(2) =   0
                l(3) =   1
                l(4) =   1
                l(5) =   2
                l(6) =   2
     Q(r) pseudized with 0 coefficients 


     PseudoPot. # 2 for Cl read from file:
     ./cl.UPF
     MD5 check sum: c55eb860b21643158ad30b78c0f07c3e
     Pseudo is Projector augmented-wave + core cor, Zval =  7.0
     Generated using "atomic" code by A. Dal Corso  (Quantum ESPRESSO distribution)
     Shape of augmentation charge: PSQ
     Using radial grid of 1157 points,  4 beta functions with: 
                l(1) =   0
                l(2) =   0
                l(3) =   1
                l(4) =   1
     Q(r) pseudized with 0 coefficients 


     atomic species   valence    mass     pseudopotential
        au            11.00   196.96655     Au( 1.00)
        cl             7.00    35.45300     Cl( 1.00)

      4 Sym.Ops. (with inversion)


   Cartesian axes

     site n.     atom                  positions (alat units)
         1           au  tau(   1) = (   0.0000000   0.0000000   0.0000000  )
         2           au  tau(   2) = (   0.2499834   0.7500936   0.3220083  )
         3           au  tau(   3) = (   0.7500166   0.2499064   0.9660820  )
         4           au  tau(   4) = (   0.5000000   0.0000000   0.6440451  )
         5           au  tau(   5) = (   0.2499834   0.2499064   0.9660820  )
         6           au  tau(   6) = (   0.7500166   0.7500936   0.3220083  )
         7           au  tau(   7) = (   0.5000000   0.5000000   0.6440451  )
         8           au  tau(   8) = (   0.0000000   0.5000000   0.0000000  )
         9           cl  tau(   9) = (   0.0000000   0.2499989   0.2372854  )
        10           cl  tau(  10) = (   0.0000000   0.7500011   1.0508049  )
        11           cl  tau(  11) = (   0.0000000   0.7500860   0.5593091  )
        12           cl  tau(  12) = (   0.0000000   0.2499140   0.7287812  )
        13           cl  tau(  13) = (   0.5000000   0.7500070   0.8813276  )
        14           cl  tau(  14) = (   0.5000000   0.2499930   0.4067627  )
        15           cl  tau(  15) = (   0.5000000   0.2499048   1.2033491  )
        16           cl  tau(  16) = (   0.5000000   0.7500952   0.0847412  )

     number of k points=    54  Marzari-Vanderbilt smearing, width (Ry)=  0.0100
                       cart. coord. in units 2pi/alat
        k(    1) = (   0.0833333   0.0833333   0.0646953), wk =   0.0370370
        k(    2) = (   0.0833333   0.0833333   0.1940858), wk =   0.0370370
        k(    3) = (   0.0833333   0.0833333   0.3234763), wk =   0.0370370
        k(    4) = (   0.0833333   0.2500000   0.0646953), wk =   0.0370370
        k(    5) = (   0.0833333   0.2500000   0.1940858), wk =   0.0370370
        k(    6) = (   0.0833333   0.2500000   0.3234763), wk =   0.0370370
        k(    7) = (   0.0833333   0.4166667   0.0646953), wk =   0.0370370
        k(    8) = (   0.0833333   0.4166667   0.1940858), wk =   0.0370370
        k(    9) = (   0.0833333   0.4166667   0.3234763), wk =   0.0370370
        k(   10) = (   0.2500000   0.2500000   0.0646953), wk =   0.0370370
        k(   11) = (   0.2500000   0.2500000   0.1940858), wk =   0.0370370
        k(   12) = (   0.2500000   0.2500000   0.3234763), wk =   0.0370370
        k(   13) = (   0.2500000   0.4166667   0.0646953), wk =   0.0370370
        k(   14) = (   0.2500000   0.4166667   0.1940858), wk =   0.0370370
        k(   15) = (   0.2500000   0.4166667   0.3234763), wk =   0.0370370
        k(   16) = (   0.4166667   0.4166667   0.0646953), wk =   0.0370370
        k(   17) = (   0.4166667   0.4166667   0.1940858), wk =   0.0370370
        k(   18) = (   0.4166667   0.4166667   0.3234763), wk =   0.0370370
        k(   19) = (   0.0833333   0.0833333  -0.0646953), wk =   0.0370370
        k(   20) = (   0.0833333   0.0833333  -0.1940858), wk =   0.0370370
        k(   21) = (   0.0833333   0.0833333  -0.3234763), wk =   0.0370370
        k(   22) = (   0.2500000   0.0833333  -0.0646953), wk =   0.0370370
        k(   23) = (  -0.2500000  -0.0833333  -0.0646953), wk =   0.0370370
        k(   24) = (  -0.0833333   0.2500000  -0.0646953), wk =   0.0370370
        k(   25) = (   0.2500000   0.0833333  -0.1940858), wk =   0.0370370
        k(   26) = (  -0.2500000  -0.0833333  -0.1940858), wk =   0.0370370
        k(   27) = (  -0.0833333   0.2500000  -0.1940858), wk =   0.0370370
        k(   28) = (   0.2500000   0.0833333  -0.3234763), wk =   0.0370370
        k(   29) = (  -0.2500000  -0.0833333  -0.3234763), wk =   0.0370370
        k(   30) = (  -0.0833333   0.2500000  -0.3234763), wk =   0.0370370
        k(   31) = (   0.4166667   0.0833333  -0.0646953), wk =   0.0370370
        k(   32) = (  -0.4166667  -0.0833333  -0.0646953), wk =   0.0370370
        k(   33) = (  -0.0833333   0.4166667  -0.0646953), wk =   0.0370370
        k(   34) = (   0.4166667   0.0833333  -0.1940858), wk =   0.0370370
        k(   35) = (  -0.4166667  -0.0833333  -0.1940858), wk =   0.0370370
        k(   36) = (  -0.0833333   0.4166667  -0.1940858), wk =   0.0370370
        k(   37) = (   0.4166667   0.0833333  -0.3234763), wk =   0.0370370
        k(   38) = (  -0.4166667  -0.0833333  -0.3234763), wk =   0.0370370
        k(   39) = (  -0.0833333   0.4166667  -0.3234763), wk =   0.0370370
        k(   40) = (   0.2500000   0.2500000  -0.0646953), wk =   0.0370370
        k(   41) = (   0.2500000   0.2500000  -0.1940858), wk =   0.0370370
        k(   42) = (   0.2500000   0.2500000  -0.3234763), wk =   0.0370370
        k(   43) = (   0.4166667   0.2500000  -0.0646953), wk =   0.0370370
        k(   44) = (  -0.4166667  -0.2500000  -0.0646953), wk =   0.0370370
        k(   45) = (  -0.2500000   0.4166667  -0.0646953), wk =   0.0370370
        k(   46) = (   0.4166667   0.2500000  -0.1940858), wk =   0.0370370
        k(   47) = (  -0.4166667  -0.2500000  -0.1940858), wk =   0.0370370
        k(   48) = (  -0.2500000   0.4166667  -0.1940858), wk =   0.0370370
        k(   49) = (   0.4166667   0.2500000  -0.3234763), wk =   0.0370370
        k(   50) = (  -0.4166667  -0.2500000  -0.3234763), wk =   0.0370370
        k(   51) = (  -0.2500000   0.4166667  -0.3234763), wk =   0.0370370
        k(   52) = (   0.4166667   0.4166667  -0.0646953), wk =   0.0370370
        k(   53) = (   0.4166667   0.4166667  -0.1940858), wk =   0.0370370
        k(   54) = (   0.4166667   0.4166667  -0.3234763), wk =   0.0370370

     Dense  grid:   358657 G-vectors     FFT dimensions: (  81,  81, 108)

     Smooth grid:    90741 G-vectors     FFT dimensions: (  54,  54,  72)

     Largest allocated arrays     est. size (Mb)     dimensions
        Kohn-Sham Wavefunctions         1.24 Mb     (    943,   86)
        NL pseudopotentials             2.99 Mb     (    943,  208)
        Each V/rho on FFT grid          0.90 Mb     (  59049)
        Each G-vector array             0.23 Mb     (  29889)
        G-vector shells                 0.23 Mb     (  29889)
     Largest temporary arrays     est. size (Mb)     dimensions
        Auxiliary wavefunctions         4.95 Mb     (    943,  344)
        Each subspace H/S matrix        1.81 Mb     ( 344, 344)
        Each <psi_i|beta_j> matrix      0.27 Mb     (    208,   86)
        Arrays for rho mixing           7.21 Mb     (  59049,   8)

     Initial potential from superposition of free atoms

     starting charge  143.99906, renormalised to  144.00000
     Starting wfc are  104 atomic wfcs
     Checking if some PAW data can be deallocated... 

     total cpu time spent up to now is       31.6 secs

     per-process dynamical memory:    44.5 Mb

     Self-consistent Calculation

     iteration #  1     ecut=    40.00 Ry     beta=0.70
     Davidson diagonalization with overlap
     ethr =  1.00E-02,  avg # of iterations =  3.2

     total cpu time spent up to now is      117.2 secs

     total energy              =   -6859.92230687 Ry
     Harris-Foulkes estimate   =   -6860.50982543 Ry
     estimated scf accuracy    <     239.83017044 Ry

     iteration #  2     ecut=    40.00 Ry     beta=0.70
     Davidson diagonalization with overlap
     ethr =  1.00E-02,  avg # of iterations =  1.0

     total cpu time spent up to now is      177.3 secs

     total energy              =   -6859.72488384 Ry
     Harris-Foulkes estimate   =   -6860.62969652 Ry
     estimated scf accuracy    <      19.78559636 Ry

     iteration #  3     ecut=    40.00 Ry     beta=0.70
     Davidson diagonalization with overlap
     ethr =  1.00E-02,  avg # of iterations =  2.0

     total cpu time spent up to now is      251.9 secs

     total energy              =   -6859.49174894 Ry
     Harris-Foulkes estimate   =   -6861.52423193 Ry
     estimated scf accuracy    <       5.56824687 Ry

     iteration #  4     ecut=    40.00 Ry     beta=0.70
     Davidson diagonalization with overlap
     ethr =  3.87E-03,  avg # of iterations =  2.0

     total cpu time spent up to now is      318.9 secs

     total energy              =   -6860.34515144 Ry
     Harris-Foulkes estimate   =   -6860.34952735 Ry
     estimated scf accuracy    <       0.01299762 Ry

     iteration #  5     ecut=    40.00 Ry     beta=0.70
     Davidson diagonalization with overlap
     ethr =  9.03E-06,  avg # of iterations =  6.4

     total cpu time spent up to now is      448.3 secs

     total energy              =   -6860.36092402 Ry
     Harris-Foulkes estimate   =   -6860.36202115 Ry
     estimated scf accuracy    <       0.00527807 Ry

     iteration #  6     ecut=    40.00 Ry     beta=0.70
     Davidson diagonalization with overlap
     ethr =  3.67E-06,  avg # of iterations =  1.0

     total cpu time spent up to now is      525.8 secs

     total energy              =   -6860.36113104 Ry
     Harris-Foulkes estimate   =   -6860.36122395 Ry
     estimated scf accuracy    <       0.00065540 Ry

     iteration #  7     ecut=    40.00 Ry     beta=0.70
     Davidson diagonalization with overlap
     ethr =  4.55E-07,  avg # of iterations =  2.0

     total cpu time spent up to now is      594.2 secs

     total energy              =   -6860.36116028 Ry
     Harris-Foulkes estimate   =   -6860.36118995 Ry
     estimated scf accuracy    <       0.00007901 Ry

     iteration #  8     ecut=    40.00 Ry     beta=0.70
     Davidson diagonalization with overlap
     ethr =  5.49E-08,  avg # of iterations =  3.0

     total cpu time spent up to now is      692.4 secs

     total energy              =   -6860.36118590 Ry
     Harris-Foulkes estimate   =   -6860.36119279 Ry
     estimated scf accuracy    <       0.00004265 Ry

     iteration #  9     ecut=    40.00 Ry     beta=0.70
     Davidson diagonalization with overlap
     ethr =  2.96E-08,  avg # of iterations =  1.0

     total cpu time spent up to now is      759.1 secs

     total energy              =   -6860.36118448 Ry
     Harris-Foulkes estimate   =   -6860.36118735 Ry
     estimated scf accuracy    <       0.00001410 Ry

     iteration # 10     ecut=    40.00 Ry     beta=0.70
     Davidson diagonalization with overlap
     ethr =  9.79E-09,  avg # of iterations =  2.0

     total cpu time spent up to now is      821.7 secs

     total energy              =   -6860.36118487 Ry
     Harris-Foulkes estimate   =   -6860.36118547 Ry
     estimated scf accuracy    <       0.00000222 Ry

     iteration # 11     ecut=    40.00 Ry     beta=0.70
     Davidson diagonalization with overlap
     ethr =  1.54E-09,  avg # of iterations =  2.0

     total cpu time spent up to now is      892.5 secs

     total energy              =   -6860.36118513 Ry
     Harris-Foulkes estimate   =   -6860.36118517 Ry
     estimated scf accuracy    <       0.00000019 Ry

     iteration # 12     ecut=    40.00 Ry     beta=0.70
     Davidson diagonalization with overlap
     ethr =  1.31E-10,  avg # of iterations =  2.3

     total cpu time spent up to now is      962.1 secs

     total energy              =   -6860.36118515 Ry
     Harris-Foulkes estimate   =   -6860.36118516 Ry
     estimated scf accuracy    <       0.00000006 Ry

     iteration # 13     ecut=    40.00 Ry     beta=0.70
     Davidson diagonalization with overlap
     ethr =  4.35E-11,  avg # of iterations =  2.0

     total cpu time spent up to now is     1039.5 secs

     total energy              =   -6860.36118514 Ry
     Harris-Foulkes estimate   =   -6860.36118515 Ry
     estimated scf accuracy    <       0.00000004 Ry

     iteration # 14     ecut=    40.00 Ry     beta=0.70
     Davidson diagonalization with overlap
     ethr =  2.90E-11,  avg # of iterations =  2.0

     total cpu time spent up to now is     1104.6 secs

     End of self-consistent calculation

          k = 0.0833 0.0833 0.0647 ( 11332 PWs)   bands (ev):

   -10.4572 -10.1911 -10.1705 -10.1599  -9.8993  -9.8189  -9.7031  -9.6971
    -0.9990  -0.9979  -0.8981  -0.8835  -0.5036  -0.4059  -0.2157  -0.1840
     0.7350   0.7772   1.0193   1.1589   1.1607   1.2253   1.3401   1.4041
     1.4513   1.6867   1.6968   1.7069   1.7703   1.8130   1.9597   2.0017
     2.1298   2.2613   2.2978   2.3743   2.4952   2.6510   2.7218   2.7701
     2.7737   2.8670   2.9275   2.9674   2.9871   3.0160   3.1604   3.1857
     3.2388   3.2758   3.2937   3.3440   3.4411   3.4634   3.4767   3.4983
     3.5235   3.5518   3.5907   3.6065   3.6510   3.7615   4.2579   4.3271
     4.3419   4.6226   4.6538   4.9939   4.9948   5.0315   5.2598   5.7861
     7.6431   7.6521   7.9599   8.1903   9.1416   9.1897   9.2095   9.4687
     9.6431  10.2732  10.5722  11.5937  11.8982  12.3632

          k = 0.0833 0.0833 0.1941 ( 11329 PWs)   bands (ev):

   -10.4194 -10.2181 -10.1894 -10.1765  -9.9247  -9.7440  -9.7338  -9.6907
    -0.9814  -0.9788  -0.9064  -0.8946  -0.5572  -0.3858  -0.3687   0.0080
     0.7608   0.7731   1.0252   1.0306   1.0682   1.2297   1.3867   1.4597
     1.4733   1.6582   1.6671   1.8028   1.8733   1.9373   1.9923   2.0340
     2.0620   2.3105   2.3121   2.3570   2.3817   2.5189   2.7431   2.7471
     2.7712   2.8040   2.8941   2.9700   3.0098   3.0861   3.1698   3.1730
     3.1940   3.2692   3.2751   3.3028   3.3698   3.4545   3.4831   3.5165
     3.5312   3.5499   3.5935   3.6287   3.6349   3.9356   4.1595   4.4564
     4.4672   4.6785   4.7659   4.8457   4.9283   4.9319   5.1580   5.4728
     7.8779   7.9036   7.9609   8.4200   9.1961   9.2489   9.2850   9.4098
     9.6067  10.4703  10.8074  10.8709  11.8451  12.1373

          k = 0.0833 0.0833 0.3235 ( 11338 PWs)   bands (ev):

   -10.3490 -10.2581 -10.2253 -10.2127  -9.8727  -9.7981  -9.6974  -9.6827
    -0.9523  -0.9485  -0.9247  -0.9174  -0.5994  -0.5263  -0.1855   0.0022
     0.8023   0.8046   0.8886   0.8950   1.1404   1.1701   1.4961   1.5680
     1.5884   1.6220   1.7294   1.7344   1.8066   1.9247   2.0777   2.0780
     2.1703   2.2280   2.3360   2.3713   2.3762   2.4161   2.7007   2.7037
     2.7385   2.7428   2.9432   2.9674   2.9999   3.0335   3.1366   3.1416
     3.2281   3.2316   3.2542   3.3859   3.3941   3.4269   3.4722   3.4725
     3.5441   3.5621   3.5680   3.5938   3.8219   3.9999   4.1615   4.4911
     4.6395   4.6468   4.7768   4.8041   4.8447   4.9429   4.9937   5.1725
     8.0301   8.1325   8.2028   8.4368   9.2447   9.3077   9.3251   9.3666
     9.7777  10.2500  10.8539  11.2247  11.4491  11.7383

          k = 0.0833 0.2500 0.0647 ( 11336 PWs)   bands (ev):

   -10.4094 -10.2052 -10.1429 -10.1127  -9.9313  -9.8227  -9.7688  -9.7207
    -0.9841  -0.9073  -0.8969  -0.7311  -0.5327  -0.3747  -0.1701  -0.1460
     0.7067   0.8769   0.9644   1.1460   1.1472   1.1972   1.2531   1.2873
     1.3466   1.3955   1.5702   1.6769   1.7404   1.8014   1.8376   2.0576
     2.1569   2.1974   2.4076   2.4638   2.4887   2.6016   2.6338   2.6604
     2.7667   2.7843   2.8877   3.0524   3.1041   3.1074   3.1735   3.1809
     3.2989   3.3442   3.3524   3.4114   3.4519   3.4578   3.5524   3.5727
     3.5957   3.6133   3.7276   3.7297   3.7688   3.8726   4.1306   4.2076
     4.3873   4.5237   4.7118   4.8444   4.8851   4.8999   5.1705   5.7272
     7.6866   8.0674   8.1274   8.2661   8.8752   9.1855   9.1912   9.4502
     9.6721  10.0818  10.7049  11.3629  11.9854  12.1934

          k = 0.0833 0.2500 0.1941 ( 11334 PWs)   bands (ev):

   -10.3745 -10.2193 -10.1642 -10.1326  -9.9515  -9.7821  -9.7644  -9.7251
    -0.9690  -0.9121  -0.8636  -0.7441  -0.5191  -0.4234  -0.3071  -0.0026
     0.7960   0.8594   1.0241   1.0402   1.0742   1.1051   1.1773   1.3247
     1.4106   1.4719   1.6066   1.7309   1.7400   1.7684   1.8796   2.0728
     2.1844   2.1943   2.3602   2.4316   2.4819   2.5636   2.6389   2.7050
     2.7473   2.7889   2.9427   3.0831   3.1036   3.1473   3.1788   3.2030
     3.2421   3.3041   3.3935   3.3986   3.4453   3.4706   3.5323   3.5548
     3.6018   3.6277   3.6397   3.7124   3.7424   3.8915   4.0206   4.3297
     4.3645   4.4985   4.7353   4.8085   4.8381   5.0107   5.1107   5.5762
     7.8814   8.0691   8.3268   8.4514   8.9020   9.2214   9.2345   9.3700
     9.7263  10.1387  10.7661  10.9658  11.6093  12.2268

          k = 0.0833 0.2500 0.3235 ( 11329 PWs)   bands (ev):

   -10.3103 -10.2396 -10.1916 -10.1896  -9.9021  -9.8345  -9.7273  -9.7183
    -0.9455  -0.9245  -0.8104  -0.7685  -0.5642  -0.4869  -0.2185  -0.0288
     0.8522   0.8775   0.9282   0.9530   1.1244   1.1490   1.2067   1.2562
     1.4748   1.5010   1.5757   1.6629   1.7422   1.8195   1.9768   2.0637
     2.1856   2.2326   2.3529   2.4179   2.4569   2.4885   2.6331   2.6520
     2.7696   2.8217   3.0877   3.0885   3.0999   3.1725   3.1745   3.2144
     3.2654   3.3208   3.3252   3.3627   3.4082   3.4788   3.5320   3.5553
     3.5886   3.5995   3.6044   3.6966   3.8301   3.8975   3.9234   4.1105
     4.5207   4.6159   4.6662   4.7365   4.8839   5.0079   5.1721   5.3679
     8.1598   8.2316   8.4301   8.4360   9.0279   9.1876   9.2774   9.3188
     9.8853  10.2512  10.3895  10.9276  11.3947  11.9018

          k = 0.0833 0.4167 0.0647 ( 11343 PWs)   bands (ev):

   -10.3325 -10.2570 -10.0875 -10.0164 -10.0003  -9.8821  -9.7969  -9.7574
    -0.9594  -0.9313  -0.7432  -0.6116  -0.4960  -0.3557  -0.1490  -0.0990
     0.7227   0.7915   0.8850   0.9871   1.0597   1.1982   1.2433   1.2684
     1.3456   1.4016   1.4130   1.5850   1.7112   1.7400   1.8029   1.9712
     2.1587   2.2647   2.3177   2.4392   2.5176   2.5339   2.5417   2.6250
     2.7784   2.8385   2.9987   3.0590   3.0715   3.2098   3.2688   3.2836
     3.3057   3.3679   3.4270   3.4747   3.4933   3.5140   3.5515   3.5769
     3.6905   3.7180   3.7433   3.7864   3.9207   3.9466   4.0234   4.1101
     4.2361   4.5346   4.5752   4.7073   4.8609   5.0164   5.2420   5.5451
     7.8322   8.1190   8.2621   8.3130   8.7053   9.0829   9.1763   9.1918
    10.0257  10.7502  10.8665  11.0003  11.3392  11.6469

          k = 0.0833 0.4167 0.1941 ( 11356 PWs)   bands (ev):

   -10.3065 -10.2491 -10.1143 -10.0692  -9.9794  -9.8859  -9.7716  -9.7545
    -0.9502  -0.9293  -0.6808  -0.5501  -0.4903  -0.4658  -0.2254  -0.0880
     0.7668   0.8292   0.8895   1.0050   1.0236   1.1028   1.1607   1.2541
     1.3602   1.4998   1.5238   1.5803   1.7058   1.7138   1.7965   1.9400
     2.1481   2.2152   2.3688   2.4693   2.5191   2.5596   2.6033   2.6352
     2.8087   2.8552   2.9538   3.0776   3.1160   3.2347   3.2495   3.2606
     3.2853   3.3689   3.3784   3.4668   3.4910   3.5072   3.5297   3.5877
     3.6887   3.7081   3.7341   3.8231   3.8439   3.8817   3.9491   4.0158
     4.3114   4.5380   4.5625   4.6876   4.8987   5.0176   5.2991   5.5133
     7.9591   8.1408   8.4842   8.4970   8.7248   9.0957   9.2122   9.2627
     9.8290  10.4247  10.5900  11.1156  11.3528  11.9214

          k = 0.0833 0.4167 0.3235 ( 11353 PWs)   bands (ev):

   -10.2646 -10.2415 -10.1420 -10.1287  -9.9445  -9.9084  -9.7522  -9.7489
    -0.9377  -0.9299  -0.5735  -0.5571  -0.5243  -0.4031  -0.3371  -0.1705
     0.8434   0.8872   0.9609   0.9671   0.9958   1.0216   1.1328   1.1726
     1.3993   1.4578   1.6087   1.6734   1.6988   1.7041   1.8032   1.8761
     2.1454   2.1690   2.4222   2.4691   2.5467   2.5780   2.6179   2.7403
     2.7948   2.8457   2.9760   3.0874   3.1332   3.1870   3.2430   3.2664
     3.2864   3.3322   3.3534   3.3782   3.5075   3.5287   3.5946   3.6313
     3.6735   3.6996   3.7278   3.7527   3.8320   3.8469   3.8641   3.8973
     4.3997   4.4775   4.6037   4.6487   4.9625   5.0076   5.3676   5.4440
     8.1273   8.2017   8.6170   8.6197   8.9558   9.1733   9.2642   9.3667
     9.5869   9.9494  10.4967  10.6756  11.7839  12.1000

          k = 0.2500 0.2500 0.0647 ( 11335 PWs)   bands (ev):

   -10.3595 -10.1612 -10.1236 -10.1169  -9.9325  -9.8587  -9.8069  -9.7709
    -0.8834  -0.8771  -0.8192  -0.6846  -0.5503  -0.3412  -0.1555  -0.0837
     0.7064   0.8897   0.9620   1.1173   1.1253   1.1510   1.2047   1.2657
     1.3506   1.3595   1.4257   1.4591   1.6640   1.7414   1.7771   2.0307
     2.0421   2.1024   2.2118   2.2479   2.5690   2.6265   2.6409   2.6562
     3.0013   3.0140   3.0224   3.1678   3.1854   3.2055   3.2392   3.2430
     3.3336   3.3346   3.4044   3.4177   3.4667   3.5215   3.6083   3.6203
     3.6269   3.6582   3.6908   3.8059   3.8511   3.8624   3.9073   4.1158
     4.2905   4.3010   4.7291   4.7347   4.9095   5.0335   5.2396   5.6597
     7.7622   8.1832   8.3225   8.4525   8.8198   8.9463   9.1211   9.1841
     9.3589  10.6902  10.7775  10.9339  11.5163  12.5331

          k = 0.2500 0.2500 0.1941 ( 11328 PWs)   bands (ev):

   -10.3265 -10.1852 -10.1408 -10.1172  -9.9707  -9.8027  -9.8001  -9.7872
    -0.8566  -0.8429  -0.8110  -0.7049  -0.4795  -0.4382  -0.2601  -0.0084
     0.8576   0.9039   0.9086   0.9528   1.0468   1.1174   1.2364   1.2960
     1.3085   1.4184   1.4492   1.5605   1.6077   1.6799   1.8714   1.9779
     2.0638   2.0894   2.2341   2.3798   2.5163   2.5638   2.6456   2.7409
     3.0019   3.0022   3.0146   3.1311   3.1478   3.1825   3.1830   3.2877
     3.2885   3.3980   3.4232   3.4624   3.4859   3.5166   3.6073   3.6325
     3.6354   3.6475   3.6771   3.7405   3.7966   3.8212   3.8842   4.1901
     4.3495   4.3837   4.6766   4.6848   4.8458   5.1462   5.1543   5.5341
     7.9244   8.2145   8.4538   8.5985   8.7809   9.0713   9.0989   9.1376
     9.5101  10.3879  10.7847  10.9274  11.9718  12.1139

          k = 0.2500 0.2500 0.3235 ( 11323 PWs)   bands (ev):

   -10.2649 -10.1875 -10.1854 -10.1699  -9.9256  -9.8591  -9.7697  -9.7685
    -0.8144  -0.8014  -0.7933  -0.7431  -0.5261  -0.4409  -0.2448  -0.0492
     0.8910   0.8988   0.9008   0.9595   1.0603   1.0970   1.1992   1.2177
     1.3551   1.4011   1.4841   1.5620   1.5863   1.6632   1.9725   2.0245
     2.0494   2.0662   2.2645   2.3530   2.4863   2.5027   2.8183   2.8374
     2.9257   2.9674   3.0505   3.1392   3.1395   3.1524   3.1709   3.2448
     3.2492   3.3400   3.3689   3.4580   3.4836   3.5205   3.5947   3.6226
     3.6293   3.6354   3.7341   3.7764   3.8107   3.8526   3.9026   4.1014
     4.4681   4.4966   4.5901   4.5999   4.8803   5.0031   5.2589   5.3814
     8.1629   8.3706   8.4121   8.6123   8.8880   8.9936   9.2194   9.2351
     9.6568   9.9241  10.9126  11.3414  11.3417  11.8518

          k = 0.2500 0.4167 0.0647 ( 11350 PWs)   bands (ev):

   -10.2786 -10.1998 -10.0647 -10.0349  -9.9901  -9.9112  -9.8525  -9.8149
    -0.8520  -0.8213  -0.7298  -0.6119  -0.4769  -0.3228  -0.1300  -0.0524
     0.7060   0.8068   0.8611   0.9800   1.0809   1.1333   1.1986   1.2419
     1.3261   1.3490   1.4447   1.5514   1.5579   1.6554   1.6772   1.8476
     1.9844   2.0451   2.0937   2.1061   2.5972   2.6122   2.7506   2.8939
     2.9489   3.0868   3.1398   3.1780   3.2016   3.2257   3.2716   3.3563
     3.3919   3.4023   3.4582   3.4704   3.4909   3.5125   3.5809   3.6256
     3.6426   3.6466   3.7698   3.8184   3.8723   3.9394   3.9428   4.0244
     4.1479   4.4023   4.4712   4.5673   5.0629   5.1792   5.2856   5.5166
     7.9375   8.2200   8.3811   8.5174   8.6540   8.8987   8.9418   9.0293
     9.6503  10.3783  10.7239  10.9740  11.6164  12.3476

          k = 0.2500 0.4167 0.1941 ( 11345 PWs)   bands (ev):

   -10.2532 -10.1952 -10.0945 -10.0499 -10.0047  -9.9044  -9.8267  -9.8186
    -0.8274  -0.8048  -0.6675  -0.5362  -0.4831  -0.4258  -0.1886  -0.0834
     0.6977   0.7578   0.9324   0.9465   0.9993   1.1055   1.2468   1.2603
     1.3361   1.4406   1.4556   1.4926   1.5359   1.6297   1.7336   1.8457
     1.9591   2.0219   2.1662   2.2282   2.5340   2.5657   2.7877   2.8520
     2.9529   3.0501   3.0849   3.1426   3.2278   3.2535   3.2735   3.3105
     3.3434   3.3901   3.4465   3.4869   3.5296   3.5521   3.5836   3.6443
     3.6530   3.6655   3.7724   3.8683   3.8865   3.9289   3.9297   4.0198
     4.2292   4.4263   4.4398   4.5444   4.9826   5.1003   5.3173   5.4538
     8.0365   8.2382   8.5466   8.6230   8.6414   8.8397   9.0809   9.1006
     9.6197  10.0041  10.9878  11.4159  11.5370  12.0415

          k = 0.2500 0.4167 0.3235 ( 11342 PWs)   bands (ev):

   -10.2104 -10.1875 -10.1249 -10.1110  -9.9649  -9.9244  -9.8132  -9.8116
    -0.7945  -0.7863  -0.5670  -0.5400  -0.4839  -0.3662  -0.3442  -0.1694
     0.7469   0.7727   0.8394   0.8668   1.0969   1.1126   1.2009   1.2212
     1.3948   1.4299   1.5001   1.5235   1.5426   1.5720   1.7884   1.8266
     1.9688   1.9925   2.2549   2.3036   2.5292   2.6087   2.6427   2.8292
     2.9312   2.9584   3.0967   3.1169   3.2242   3.2461   3.2994   3.3164
     3.3366   3.3696   3.4904   3.5062   3.5280   3.5312   3.6413   3.6483
     3.6866   3.7221   3.7706   3.8025   3.9147   3.9189   3.9586   4.0080
     4.3102   4.3830   4.4631   4.5053   4.9615   5.0130   5.3303   5.3723
     8.1720   8.2592   8.5790   8.6540   8.8255   8.9887   9.0205   9.1548
     9.6546   9.7301  11.2019  11.3987  11.6671  12.1456

          k = 0.4167 0.4167 0.0647 ( 11364 PWs)   bands (ev):

   -10.1887 -10.1119 -10.0841 -10.0260  -9.9760  -9.9641  -9.9229  -9.8894
    -0.7254  -0.7167  -0.7121  -0.6356  -0.3619  -0.2406  -0.1599  -0.0653
     0.7042   0.8541   0.8706   0.8776   0.9339   0.9948   1.0931   1.1583
     1.3870   1.4773   1.4776   1.4956   1.6176   1.6497   1.6634   1.7446
     1.7778   1.8200   1.9034   1.9724   2.6687   2.7678   2.7945   2.9728
     3.0250   3.1585   3.1687   3.1896   3.1958   3.2484   3.2598   3.3904
     3.4313   3.4750   3.4769   3.5040   3.5375   3.5542   3.6061   3.6066
     3.7980   3.8097   3.8225   3.8873   3.8977   3.9028   3.9265   4.0320
     4.1100   4.2064   4.3148   4.3152   5.2617   5.2795   5.3314   5.4403
     8.1272   8.3491   8.4096   8.5594   8.6352   8.7949   8.7987   8.8087
     9.7420  10.1173  10.4072  10.4255  12.4766  12.9793

          k = 0.4167 0.4167 0.1941 ( 11349 PWs)   bands (ev):

   -10.1675 -10.1240 -10.0655 -10.0475 -10.0130  -9.9379  -9.9100  -9.8986
    -0.6800  -0.6588  -0.6538  -0.5527  -0.3938  -0.3461  -0.1753  -0.1428
     0.6089   0.6909   0.7317   0.7986   1.0776   1.1195   1.2486   1.2819
     1.3719   1.4391   1.4615   1.4753   1.6437   1.6608   1.6861   1.7382
     1.7543   1.7645   2.0090   2.0156   2.5666   2.6340   2.6678   2.8328
     3.1135   3.1674   3.2035   3.2107   3.2370   3.2635   3.3859   3.3980
     3.4453   3.4535   3.5002   3.5051   3.5237   3.5439   3.5833   3.6009
     3.8442   3.8537   3.8692   3.9167   3.9422   3.9458   3.9629   3.9760
     4.1506   4.2328   4.2936   4.3028   5.1362   5.1905   5.3119   5.3517
     8.1799   8.3731   8.4055   8.5788   8.6339   8.7925   8.8010   8.9309
     9.9204   9.9875  10.6352  10.8247  12.2967  12.6925

          k = 0.4167 0.4167 0.3235 ( 11317 PWs)   bands (ev):

   -10.1283 -10.1191 -10.0985 -10.0774  -9.9924  -9.9469  -9.9083  -9.8940
    -0.6010  -0.5650  -0.5630  -0.4818  -0.4354  -0.3838  -0.3396  -0.2316
     0.5954   0.6268   0.6413   0.6801   1.2058   1.2523   1.2527   1.3783
     1.3941   1.4065   1.4148   1.4599   1.6811   1.6869   1.7016   1.7203
     1.7267   1.7285   2.0779   2.0917   2.5145   2.5514   2.5558   2.6388
     3.1964   3.1980   3.2154   3.2270   3.2794   3.3271   3.3628   3.4039
     3.4060   3.4206   3.4857   3.4975   3.5506   3.5720   3.6343   3.6576
     3.8338   3.8373   3.8575   3.9042   3.9940   4.0043   4.0275   4.0398
     4.1992   4.2514   4.2646   4.2871   5.0493   5.0799   5.2566   5.2616
     8.2531   8.3270   8.4691   8.5603   8.7301   8.7835   8.8334   8.9213
    10.0592  10.0909  10.9872  11.1365  12.0529  12.3073

          k = 0.0833 0.0833-0.0647 ( 11332 PWs)   bands (ev):

   -10.4572 -10.1911 -10.1705 -10.1598  -9.8993  -9.8189  -9.7031  -9.6971
    -0.9990  -0.9979  -0.8981  -0.8835  -0.5036  -0.4059  -0.2157  -0.1840
     0.7350   0.7772   1.0193   1.1589   1.1607   1.2253   1.3401   1.4041
     1.4513   1.6867   1.6968   1.7069   1.7703   1.8130   1.9597   2.0017
     2.1298   2.2614   2.2978   2.3743   2.4952   2.6510   2.7218   2.7701
     2.7737   2.8670   2.9274   2.9674   2.9871   3.0160   3.1604   3.1857
     3.2388   3.2758   3.2937   3.3440   3.4411   3.4634   3.4767   3.4983
     3.5235   3.5518   3.5907   3.6065   3.6510   3.7615   4.2579   4.3271
     4.3420   4.6226   4.6538   4.9938   4.9948   5.0315   5.2598   5.7861
     7.6431   7.6521   7.9599   8.1902   9.1416   9.1897   9.2095   9.4687
     9.6431  10.2732  10.5722  11.5937  11.8982  12.3632

          k = 0.0833 0.0833-0.1941 ( 11329 PWs)   bands (ev):

   -10.4194 -10.2182 -10.1894 -10.1765  -9.9247  -9.7440  -9.7338  -9.6907
    -0.9814  -0.9788  -0.9064  -0.8946  -0.5572  -0.3858  -0.3687   0.0080
     0.7608   0.7731   1.0252   1.0305   1.0682   1.2297   1.3866   1.4597
     1.4733   1.6582   1.6671   1.8028   1.8733   1.9373   1.9923   2.0341
     2.0620   2.3104   2.3121   2.3570   2.3817   2.5189   2.7431   2.7471
     2.7713   2.8040   2.8941   2.9699   3.0098   3.0861   3.1698   3.1729
     3.1941   3.2692   3.2751   3.3028   3.3698   3.4545   3.4831   3.5165
     3.5312   3.5499   3.5935   3.6287   3.6349   3.9356   4.1595   4.4564
     4.4672   4.6785   4.7659   4.8457   4.9283   4.9319   5.1580   5.4728
     7.8779   7.9036   7.9608   8.4200   9.1961   9.2489   9.2850   9.4098
     9.6066  10.4703  10.8074  10.8709  11.8451  12.1372

          k = 0.0833 0.0833-0.3235 ( 11338 PWs)   bands (ev):

   -10.3490 -10.2581 -10.2253 -10.2127  -9.8727  -9.7981  -9.6974  -9.6827
    -0.9523  -0.9485  -0.9247  -0.9174  -0.5994  -0.5263  -0.1855   0.0022
     0.8023   0.8046   0.8885   0.8950   1.1404   1.1701   1.4961   1.5680
     1.5884   1.6220   1.7294   1.7344   1.8066   1.9247   2.0777   2.0780
     2.1703   2.2280   2.3360   2.3713   2.3762   2.4162   2.7007   2.7037
     2.7385   2.7428   2.9432   2.9674   2.9999   3.0335   3.1366   3.1416
     3.2281   3.2316   3.2542   3.3859   3.3941   3.4269   3.4722   3.4725
     3.5441   3.5621   3.5680   3.5938   3.8219   3.9999   4.1615   4.4911
     4.6395   4.6468   4.7768   4.8041   4.8447   4.9429   4.9937   5.1725
     8.0301   8.1325   8.2028   8.4368   9.2447   9.3077   9.3251   9.3666
     9.7777  10.2500  10.8539  11.2247  11.4491  11.7383

          k = 0.2500 0.0833-0.0647 ( 11336 PWs)   bands (ev):

   -10.4094 -10.2053 -10.1429 -10.1127  -9.9313  -9.8227  -9.7688  -9.7207
    -0.9841  -0.9073  -0.8969  -0.7311  -0.5327  -0.3747  -0.1701  -0.1460
     0.7067   0.8769   0.9644   1.1460   1.1472   1.1972   1.2531   1.2873
     1.3466   1.3955   1.5702   1.6769   1.7404   1.8014   1.8376   2.0576
     2.1569   2.1974   2.4076   2.4638   2.4887   2.6016   2.6338   2.6604
     2.7667   2.7843   2.8877   3.0523   3.1041   3.1074   3.1735   3.1809
     3.2989   3.3442   3.3525   3.4114   3.4519   3.4578   3.5524   3.5727
     3.5957   3.6133   3.7276   3.7297   3.7688   3.8725   4.1306   4.2076
     4.3874   4.5237   4.7118   4.8444   4.8851   4.8999   5.1705   5.7272
     7.6866   8.0674   8.1274   8.2661   8.8752   9.1855   9.1912   9.4502
     9.6721  10.0818  10.7049  11.3629  11.9854  12.1934

          k =-0.2500-0.0833-0.0647 ( 11336 PWs)   bands (ev):

   -10.4094 -10.2053 -10.1429 -10.1127  -9.9313  -9.8227  -9.7688  -9.7207
    -0.9841  -0.9073  -0.8969  -0.7311  -0.5327  -0.3747  -0.1701  -0.1460
     0.7067   0.8769   0.9644   1.1460   1.1472   1.1972   1.2531   1.2873
     1.3466   1.3955   1.5702   1.6769   1.7404   1.8014   1.8376   2.0576
     2.1569   2.1974   2.4076   2.4638   2.4887   2.6016   2.6338   2.6604
     2.7667   2.7843   2.8877   3.0524   3.1041   3.1074   3.1735   3.1809
     3.2989   3.3442   3.3524   3.4114   3.4519   3.4578   3.5524   3.5727
     3.5957   3.6133   3.7276   3.7297   3.7688   3.8725   4.1306   4.2076
     4.3874   4.5237   4.7118   4.8444   4.8851   4.8999   5.1705   5.7272
     7.6866   8.0674   8.1274   8.2661   8.8752   9.1855   9.1912   9.4502
     9.6722  10.0818  10.7049  11.3629  11.9854  12.1934

          k =-0.0833 0.2500-0.0647 ( 11336 PWs)   bands (ev):

   -10.4094 -10.2053 -10.1429 -10.1127  -9.9313  -9.8227  -9.7688  -9.7207
    -0.9841  -0.9073  -0.8969  -0.7311  -0.5327  -0.3747  -0.1701  -0.1460
     0.7067   0.8769   0.9644   1.1460   1.1472   1.1972   1.2531   1.2873
     1.3466   1.3955   1.5702   1.6769   1.7404   1.8014   1.8376   2.0576
     2.1569   2.1974   2.4076   2.4638   2.4887   2.6016   2.6338   2.6604
     2.7667   2.7843   2.8877   3.0523   3.1041   3.1074   3.1735   3.1809
     3.2989   3.3442   3.3524   3.4114   3.4519   3.4578   3.5524   3.5727
     3.5957   3.6133   3.7276   3.7297   3.7688   3.8725   4.1306   4.2076
     4.3874   4.5237   4.7118   4.8444   4.8851   4.8998   5.1705   5.7272
     7.6866   8.0674   8.1274   8.2661   8.8752   9.1855   9.1912   9.4502
     9.6721  10.0818  10.7049  11.3629  11.9854  12.1934

          k = 0.2500 0.0833-0.1941 ( 11334 PWs)   bands (ev):

   -10.3745 -10.2193 -10.1642 -10.1326  -9.9514  -9.7821  -9.7644  -9.7251
    -0.9690  -0.9121  -0.8636  -0.7441  -0.5191  -0.4234  -0.3071  -0.0026
     0.7960   0.8595   1.0241   1.0402   1.0742   1.1051   1.1773   1.3247
     1.4106   1.4719   1.6066   1.7309   1.7400   1.7684   1.8797   2.0728
     2.1844   2.1943   2.3602   2.4316   2.4819   2.5636   2.6389   2.7050
     2.7473   2.7889   2.9427   3.0830   3.1036   3.1473   3.1788   3.2030
     3.2421   3.3041   3.3935   3.3986   3.4453   3.4706   3.5323   3.5548
     3.6018   3.6277   3.6396   3.7124   3.7424   3.8915   4.0206   4.3297
     4.3645   4.4985   4.7353   4.8085   4.8381   5.0107   5.1107   5.5763
     7.8813   8.0691   8.3268   8.4514   8.9020   9.2214   9.2345   9.3701
     9.7263  10.1387  10.7661  10.9658  11.6093  12.2267

          k =-0.2500-0.0833-0.1941 ( 11334 PWs)   bands (ev):

   -10.3745 -10.2193 -10.1642 -10.1326  -9.9514  -9.7821  -9.7644  -9.7251
    -0.9690  -0.9121  -0.8636  -0.7441  -0.5191  -0.4234  -0.3071  -0.0026
     0.7960   0.8594   1.0241   1.0402   1.0742   1.1051   1.1773   1.3247
     1.4107   1.4719   1.6066   1.7309   1.7400   1.7684   1.8796   2.0728
     2.1844   2.1943   2.3602   2.4316   2.4819   2.5636   2.6389   2.7050
     2.7473   2.7889   2.9427   3.0831   3.1036   3.1473   3.1788   3.2030
     3.2421   3.3041   3.3935   3.3986   3.4453   3.4706   3.5323   3.5548
     3.6018   3.6277   3.6396   3.7124   3.7424   3.8915   4.0206   4.3297
     4.3645   4.4985   4.7353   4.8085   4.8381   5.0107   5.1107   5.5763
     7.8813   8.0691   8.3268   8.4514   8.9019   9.2214   9.2344   9.3701
     9.7264  10.1387  10.7661  10.9658  11.6093  12.2267

          k =-0.0833 0.2500-0.1941 ( 11334 PWs)   bands (ev):

   -10.3745 -10.2193 -10.1642 -10.1326  -9.9514  -9.7821  -9.7644  -9.7251
    -0.9690  -0.9121  -0.8636  -0.7441  -0.5191  -0.4233  -0.3071  -0.0026
     0.7960   0.8595   1.0240   1.0401   1.0742   1.1051   1.1773   1.3247
     1.4107   1.4719   1.6066   1.7309   1.7401   1.7684   1.8797   2.0728
     2.1844   2.1944   2.3602   2.4316   2.4819   2.5636   2.6389   2.7050
     2.7473   2.7889   2.9427   3.0830   3.1036   3.1473   3.1788   3.2030
     3.2421   3.3041   3.3935   3.3986   3.4453   3.4706   3.5323   3.5548
     3.6018   3.6277   3.6396   3.7124   3.7424   3.8915   4.0206   4.3297
     4.3645   4.4985   4.7353   4.8085   4.8380   5.0107   5.1107   5.5763
     7.8813   8.0692   8.3268   8.4514   8.9019   9.2214   9.2345   9.3701
     9.7263  10.1387  10.7661  10.9658  11.6093  12.2267

          k = 0.2500 0.0833-0.3235 ( 11329 PWs)   bands (ev):

   -10.3103 -10.2396 -10.1917 -10.1896  -9.9021  -9.8345  -9.7273  -9.7183
    -0.9455  -0.9245  -0.8104  -0.7685  -0.5642  -0.4869  -0.2185  -0.0288
     0.8522   0.8775   0.9282   0.9530   1.1244   1.1490   1.2067   1.2562
     1.4748   1.5010   1.5757   1.6629   1.7422   1.8195   1.9769   2.0637
     2.1856   2.2326   2.3529   2.4179   2.4568   2.4885   2.6331   2.6520
     2.7696   2.8217   3.0877   3.0885   3.0998   3.1725   3.1745   3.2144
     3.2655   3.3208   3.3252   3.3627   3.4082   3.4788   3.5320   3.5553
     3.5886   3.5995   3.6044   3.6966   3.8301   3.8975   3.9234   4.1105
     4.5207   4.6159   4.6662   4.7364   4.8839   5.0079   5.1721   5.3679
     8.1597   8.2316   8.4301   8.4360   9.0278   9.1876   9.2774   9.3189
     9.8853  10.2512  10.3895  10.9276  11.3947  11.9018

          k =-0.2500-0.0833-0.3235 ( 11329 PWs)   bands (ev):

   -10.3103 -10.2396 -10.1916 -10.1896  -9.9021  -9.8345  -9.7273  -9.7183
    -0.9455  -0.9245  -0.8104  -0.7685  -0.5642  -0.4869  -0.2185  -0.0288
     0.8522   0.8775   0.9282   0.9530   1.1244   1.1490   1.2067   1.2562
     1.4748   1.5010   1.5757   1.6629   1.7422   1.8195   1.9769   2.0637
     2.1856   2.2326   2.3529   2.4179   2.4568   2.4885   2.6331   2.6520
     2.7696   2.8217   3.0877   3.0885   3.0998   3.1725   3.1745   3.2144
     3.2654   3.3209   3.3252   3.3627   3.4082   3.4788   3.5320   3.5553
     3.5886   3.5995   3.6044   3.6966   3.8301   3.8975   3.9234   4.1105
     4.5207   4.6159   4.6662   4.7364   4.8839   5.0079   5.1721   5.3679
     8.1597   8.2316   8.4301   8.4360   9.0278   9.1876   9.2774   9.3188
     9.8853  10.2512  10.3895  10.9276  11.3947  11.9018

          k =-0.0833 0.2500-0.3235 ( 11329 PWs)   bands (ev):

   -10.3103 -10.2396 -10.1917 -10.1895  -9.9021  -9.8345  -9.7273  -9.7183
    -0.9455  -0.9245  -0.8104  -0.7685  -0.5642  -0.4869  -0.2185  -0.0288
     0.8522   0.8775   0.9281   0.9530   1.1244   1.1490   1.2067   1.2563
     1.4748   1.5010   1.5757   1.6629   1.7422   1.8195   1.9769   2.0637
     2.1856   2.2326   2.3529   2.4179   2.4568   2.4885   2.6331   2.6520
     2.7696   2.8217   3.0877   3.0885   3.0998   3.1725   3.1745   3.2144
     3.2654   3.3208   3.3252   3.3627   3.4082   3.4788   3.5320   3.5553
     3.5886   3.5995   3.6044   3.6966   3.8301   3.8975   3.9234   4.1105
     4.5208   4.6159   4.6662   4.7364   4.8839   5.0079   5.1721   5.3679
     8.1597   8.2317   8.4301   8.4360   9.0278   9.1877   9.2774   9.3189
     9.8852  10.2512  10.3895  10.9276  11.3947  11.9018

          k = 0.4167 0.0833-0.0647 ( 11343 PWs)   bands (ev):

   -10.3325 -10.2570 -10.0875 -10.0165 -10.0003  -9.8821  -9.7969  -9.7574
    -0.9594  -0.9313  -0.7432  -0.6116  -0.4960  -0.3557  -0.1490  -0.0990
     0.7227   0.7916   0.8850   0.9870   1.0597   1.1982   1.2433   1.2684
     1.3456   1.4016   1.4130   1.5850   1.7112   1.7400   1.8029   1.9712
     2.1587   2.2647   2.3177   2.4392   2.5176   2.5339   2.5417   2.6250
     2.7784   2.8385   2.9987   3.0590   3.0715   3.2098   3.2688   3.2836
     3.3057   3.3679   3.4270   3.4747   3.4933   3.5140   3.5515   3.5769
     3.6905   3.7180   3.7433   3.7864   3.9207   3.9466   4.0234   4.1101
     4.2361   4.5346   4.5752   4.7073   4.8609   5.0164   5.2420   5.5451
     7.8322   8.1190   8.2621   8.3130   8.7053   9.0829   9.1763   9.1918
    10.0257  10.7502  10.8665  11.0003  11.3391  11.6469

          k =-0.4167-0.0833-0.0647 ( 11343 PWs)   bands (ev):

   -10.3325 -10.2570 -10.0875 -10.0164 -10.0003  -9.8821  -9.7969  -9.7574
    -0.9594  -0.9313  -0.7432  -0.6116  -0.4960  -0.3557  -0.1490  -0.0990
     0.7227   0.7916   0.8850   0.9870   1.0597   1.1982   1.2433   1.2684
     1.3456   1.4016   1.4130   1.5850   1.7112   1.7400   1.8029   1.9712
     2.1587   2.2647   2.3177   2.4392   2.5176   2.5340   2.5417   2.6250
     2.7784   2.8385   2.9987   3.0590   3.0715   3.2098   3.2688   3.2836
     3.3057   3.3679   3.4270   3.4747   3.4933   3.5140   3.5515   3.5769
     3.6905   3.7180   3.7433   3.7864   3.9207   3.9466   4.0233   4.1101
     4.2361   4.5346   4.5752   4.7073   4.8609   5.0164   5.2420   5.5452
     7.8322   8.1190   8.2621   8.3130   8.7053   9.0829   9.1763   9.1919
    10.0257  10.7502  10.8665  11.0003  11.3392  11.6469

          k =-0.0833 0.4167-0.0647 ( 11343 PWs)   bands (ev):

   -10.3325 -10.2570 -10.0875 -10.0165 -10.0003  -9.8821  -9.7969  -9.7574
    -0.9594  -0.9313  -0.7432  -0.6116  -0.4960  -0.3557  -0.1490  -0.0990
     0.7226   0.7916   0.8851   0.9870   1.0597   1.1982   1.2432   1.2684
     1.3456   1.4016   1.4131   1.5850   1.7112   1.7400   1.8029   1.9712
     2.1587   2.2647   2.3177   2.4392   2.5176   2.5339   2.5417   2.6250
     2.7784   2.8385   2.9987   3.0590   3.0715   3.2098   3.2688   3.2836
     3.3057   3.3679   3.4270   3.4747   3.4933   3.5140   3.5515   3.5769
     3.6905   3.7180   3.7433   3.7864   3.9206   3.9466   4.0233   4.1101
     4.2361   4.5346   4.5752   4.7072   4.8609   5.0164   5.2420   5.5452
     7.8322   8.1191   8.2620   8.3130   8.7053   9.0829   9.1763   9.1918
    10.0257  10.7502  10.8665  11.0003  11.3392  11.6469

          k = 0.4167 0.0833-0.1941 ( 11356 PWs)   bands (ev):

   -10.3065 -10.2491 -10.1143 -10.0692  -9.9794  -9.8859  -9.7716  -9.7545
    -0.9502  -0.9293  -0.6808  -0.5501  -0.4903  -0.4658  -0.2254  -0.0880
     0.7667   0.8292   0.8895   1.0050   1.0236   1.1027   1.1607   1.2541
     1.3602   1.4998   1.5238   1.5803   1.7058   1.7138   1.7966   1.9400
     2.1481   2.2152   2.3688   2.4693   2.5191   2.5596   2.6033   2.6352
     2.8087   2.8552   2.9537   3.0776   3.1160   3.2347   3.2495   3.2606
     3.2853   3.3689   3.3784   3.4668   3.4910   3.5072   3.5297   3.5877
     3.6887   3.7081   3.7341   3.8231   3.8439   3.8818   3.9491   4.0158
     4.3115   4.5379   4.5625   4.6876   4.8987   5.0176   5.2990   5.5133
     7.9590   8.1409   8.4842   8.4969   8.7248   9.0958   9.2122   9.2626
     9.8291  10.4247  10.5900  11.1156  11.3528  11.9214

          k =-0.4167-0.0833-0.1941 ( 11356 PWs)   bands (ev):

   -10.3065 -10.2491 -10.1143 -10.0692  -9.9794  -9.8859  -9.7716  -9.7545
    -0.9502  -0.9293  -0.6808  -0.5501  -0.4903  -0.4658  -0.2254  -0.0880
     0.7667   0.8292   0.8895   1.0050   1.0236   1.1027   1.1607   1.2541
     1.3602   1.4998   1.5238   1.5804   1.7058   1.7137   1.7966   1.9400
     2.1481   2.2152   2.3688   2.4693   2.5191   2.5596   2.6033   2.6352
     2.8087   2.8552   2.9537   3.0776   3.1160   3.2347   3.2495   3.2606
     3.2853   3.3689   3.3784   3.4668   3.4910   3.5072   3.5297   3.5877
     3.6887   3.7081   3.7341   3.8231   3.8439   3.8817   3.9491   4.0158
     4.3115   4.5379   4.5625   4.6876   4.8987   5.0176   5.2990   5.5133
     7.9590   8.1409   8.4842   8.4969   8.7248   9.0957   9.2122   9.2627
     9.8291  10.4247  10.5900  11.1156  11.3528  11.9214

          k =-0.0833 0.4167-0.1941 ( 11356 PWs)   bands (ev):

   -10.3065 -10.2491 -10.1143 -10.0692  -9.9794  -9.8859  -9.7716  -9.7545
    -0.9502  -0.9293  -0.6808  -0.5501  -0.4904  -0.4658  -0.2254  -0.0880
     0.7667   0.8293   0.8895   1.0050   1.0236   1.1027   1.1607   1.2541
     1.3602   1.4998   1.5238   1.5804   1.7058   1.7138   1.7966   1.9400
     2.1481   2.2152   2.3688   2.4693   2.5191   2.5596   2.6033   2.6352
     2.8087   2.8552   2.9537   3.0776   3.1160   3.2347   3.2495   3.2606
     3.2853   3.3689   3.3784   3.4668   3.4910   3.5072   3.5297   3.5877
     3.6887   3.7081   3.7341   3.8231   3.8439   3.8818   3.9491   4.0158
     4.3115   4.5379   4.5625   4.6875   4.8987   5.0176   5.2990   5.5133
     7.9590   8.1410   8.4842   8.4968   8.7248   9.0957   9.2122   9.2627
     9.8291  10.4247  10.5900  11.1156  11.3528  11.9214

          k = 0.4167 0.0833-0.3235 ( 11353 PWs)   bands (ev):

   -10.2646 -10.2415 -10.1420 -10.1287  -9.9444  -9.9084  -9.7522  -9.7489
    -0.9376  -0.9299  -0.5735  -0.5571  -0.5243  -0.4031  -0.3371  -0.1705
     0.8434   0.8872   0.9610   0.9671   0.9958   1.0215   1.1328   1.1726
     1.3993   1.4578   1.6087   1.6734   1.6988   1.7041   1.8032   1.8761
     2.1454   2.1690   2.4222   2.4691   2.5467   2.5780   2.6179   2.7403
     2.7948   2.8457   2.9760   3.0874   3.1332   3.1870   3.2430   3.2664
     3.2864   3.3322   3.3534   3.3782   3.5075   3.5287   3.5946   3.6313
     3.6735   3.6996   3.7279   3.7526   3.8320   3.8469   3.8641   3.8973
     4.3998   4.4774   4.6038   4.6487   4.9626   5.0076   5.3676   5.4440
     8.1273   8.2018   8.6170   8.6197   8.9558   9.1734   9.2642   9.3667
     9.5869   9.9493  10.4967  10.6756  11.7839  12.1000

          k =-0.4167-0.0833-0.3235 ( 11353 PWs)   bands (ev):

   -10.2646 -10.2415 -10.1420 -10.1287  -9.9444  -9.9084  -9.7522  -9.7489
    -0.9376  -0.9299  -0.5735  -0.5571  -0.5243  -0.4031  -0.3371  -0.1705
     0.8434   0.8872   0.9609   0.9671   0.9958   1.0215   1.1328   1.1726
     1.3993   1.4578   1.6087   1.6734   1.6988   1.7041   1.8032   1.8761
     2.1454   2.1690   2.4222   2.4691   2.5467   2.5780   2.6179   2.7403
     2.7948   2.8457   2.9760   3.0874   3.1332   3.1870   3.2430   3.2664
     3.2864   3.3322   3.3534   3.3782   3.5075   3.5287   3.5946   3.6313
     3.6735   3.6996   3.7279   3.7526   3.8320   3.8468   3.8641   3.8973
     4.3997   4.4774   4.6038   4.6487   4.9626   5.0076   5.3676   5.4440
     8.1273   8.2018   8.6169   8.6197   8.9557   9.1733   9.2642   9.3668
     9.5869   9.9494  10.4967  10.6756  11.7839  12.1000

          k =-0.0833 0.4167-0.3235 ( 11353 PWs)   bands (ev):

   -10.2646 -10.2415 -10.1420 -10.1287  -9.9444  -9.9084  -9.7521  -9.7489
    -0.9376  -0.9299  -0.5735  -0.5571  -0.5243  -0.4031  -0.3371  -0.1706
     0.8434   0.8872   0.9610   0.9671   0.9958   1.0215   1.1327   1.1726
     1.3993   1.4578   1.6087   1.6734   1.6988   1.7041   1.8032   1.8761
     2.1454   2.1690   2.4222   2.4690   2.5467   2.5780   2.6179   2.7403
     2.7948   2.8457   2.9760   3.0874   3.1332   3.1870   3.2430   3.2664
     3.2864   3.3322   3.3534   3.3782   3.5075   3.5287   3.5946   3.6313
     3.6735   3.6996   3.7279   3.7526   3.8320   3.8468   3.8641   3.8973
     4.3998   4.4774   4.6038   4.6486   4.9626   5.0076   5.3675   5.4440
     8.1272   8.2019   8.6169   8.6198   8.9557   9.1733   9.2642   9.3668
     9.5869   9.9493  10.4967  10.6756  11.7839  12.1000

          k = 0.2500 0.2500-0.0647 ( 11335 PWs)   bands (ev):

   -10.3595 -10.1612 -10.1236 -10.1168  -9.9325  -9.8587  -9.8069  -9.7709
    -0.8834  -0.8771  -0.8192  -0.6846  -0.5503  -0.3412  -0.1555  -0.0837
     0.7064   0.8897   0.9620   1.1173   1.1253   1.1510   1.2047   1.2657
     1.3506   1.3595   1.4257   1.4592   1.6640   1.7415   1.7771   2.0307
     2.0421   2.1024   2.2118   2.2479   2.5690   2.6265   2.6409   2.6562
     3.0014   3.0140   3.0224   3.1678   3.1854   3.2055   3.2392   3.2430
     3.3336   3.3346   3.4044   3.4176   3.4667   3.5215   3.6083   3.6203
     3.6269   3.6581   3.6908   3.8060   3.8511   3.8624   3.9073   4.1158
     4.2905   4.3010   4.7291   4.7347   4.9095   5.0335   5.2396   5.6597
     7.7622   8.1833   8.3224   8.4525   8.8198   8.9462   9.1211   9.1842
     9.3589  10.6902  10.7775  10.9339  11.5163  12.5331

          k = 0.2500 0.2500-0.1941 ( 11328 PWs)   bands (ev):

   -10.3265 -10.1852 -10.1408 -10.1173  -9.9707  -9.8028  -9.8000  -9.7872
    -0.8566  -0.8429  -0.8110  -0.7049  -0.4795  -0.4382  -0.2601  -0.0085
     0.8576   0.9039   0.9087   0.9528   1.0467   1.1174   1.2364   1.2960
     1.3085   1.4184   1.4492   1.5604   1.6077   1.6799   1.8715   1.9780
     2.0638   2.0893   2.2340   2.3798   2.5163   2.5638   2.6456   2.7409
     3.0019   3.0022   3.0146   3.1311   3.1478   3.1825   3.1830   3.2877
     3.2885   3.3980   3.4232   3.4624   3.4859   3.5166   3.6073   3.6325
     3.6354   3.6475   3.6771   3.7406   3.7966   3.8212   3.8842   4.1901
     4.3495   4.3837   4.6766   4.6847   4.8458   5.1462   5.1543   5.5341
     7.9244   8.2146   8.4538   8.5985   8.7808   9.0713   9.0989   9.1376
     9.5100  10.3879  10.7847  10.9274  11.9718  12.1139

          k = 0.2500 0.2500-0.3235 ( 11323 PWs)   bands (ev):

   -10.2649 -10.1875 -10.1854 -10.1699  -9.9256  -9.8591  -9.7697  -9.7685
    -0.8144  -0.8014  -0.7933  -0.7431  -0.5261  -0.4409  -0.2448  -0.0492
     0.8910   0.8988   0.9007   0.9595   1.0603   1.0969   1.1992   1.2177
     1.3551   1.4011   1.4841   1.5620   1.5863   1.6632   1.9726   2.0245
     2.0494   2.0662   2.2645   2.3530   2.4863   2.5027   2.8183   2.8374
     2.9257   2.9674   3.0505   3.1392   3.1395   3.1524   3.1709   3.2448
     3.2492   3.3401   3.3689   3.4580   3.4836   3.5205   3.5947   3.6226
     3.6293   3.6354   3.7341   3.7764   3.8107   3.8526   3.9026   4.1014
     4.4682   4.4967   4.5901   4.5999   4.8803   5.0031   5.2588   5.3814
     8.1629   8.3707   8.4122   8.6122   8.8880   8.9937   9.2195   9.2351
     9.6568   9.9240  10.9126  11.3414  11.3416  11.8518

          k = 0.4167 0.2500-0.0647 ( 11350 PWs)   bands (ev):

   -10.2785 -10.1998 -10.0647 -10.0349  -9.9901  -9.9112  -9.8525  -9.8149
    -0.8520  -0.8213  -0.7298  -0.6119  -0.4769  -0.3228  -0.1301  -0.0524
     0.7060   0.8068   0.8611   0.9800   1.0809   1.1333   1.1986   1.2419
     1.3261   1.3490   1.4447   1.5514   1.5578   1.6554   1.6772   1.8476
     1.9844   2.0451   2.0937   2.1061   2.5972   2.6122   2.7506   2.8939
     2.9489   3.0868   3.1398   3.1780   3.2016   3.2257   3.2716   3.3563
     3.3919   3.4023   3.4582   3.4704   3.4909   3.5125   3.5809   3.6256
     3.6426   3.6466   3.7698   3.8184   3.8723   3.9394   3.9428   4.0244
     4.1479   4.4023   4.4712   4.5673   5.0629   5.1792   5.2856   5.5166
     7.9375   8.2200   8.3810   8.5174   8.6541   8.8988   8.9417   9.0293
     9.6503  10.3783  10.7239  10.9740  11.6164  12.3476

          k =-0.4167-0.2500-0.0647 ( 11350 PWs)   bands (ev):

   -10.2786 -10.1998 -10.0647 -10.0349  -9.9901  -9.9112  -9.8525  -9.8149
    -0.8520  -0.8213  -0.7298  -0.6119  -0.4769  -0.3228  -0.1301  -0.0524
     0.7060   0.8068   0.8611   0.9800   1.0809   1.1332   1.1986   1.2419
     1.3261   1.3490   1.4447   1.5514   1.5579   1.6554   1.6772   1.8476
     1.9844   2.0451   2.0937   2.1061   2.5972   2.6122   2.7506   2.8939
     2.9489   3.0868   3.1398   3.1780   3.2016   3.2257   3.2716   3.3563
     3.3920   3.4023   3.4582   3.4704   3.4909   3.5125   3.5809   3.6256
     3.6426   3.6466   3.7698   3.8184   3.8723   3.9394   3.9428   4.0244
     4.1479   4.4023   4.4712   4.5673   5.0629   5.1792   5.2856   5.5166
     7.9375   8.2200   8.3810   8.5174   8.6540   8.8987   8.9418   9.0294
     9.6503  10.3783  10.7239  10.9740  11.6164  12.3476

          k =-0.2500 0.4167-0.0647 ( 11350 PWs)   bands (ev):

   -10.2785 -10.1998 -10.0647 -10.0349  -9.9902  -9.9112  -9.8525  -9.8149
    -0.8520  -0.8213  -0.7298  -0.6119  -0.4770  -0.3228  -0.1301  -0.0523
     0.7060   0.8069   0.8611   0.9800   1.0809   1.1332   1.1986   1.2419
     1.3261   1.3490   1.4447   1.5514   1.5578   1.6554   1.6772   1.8476
     1.9844   2.0451   2.0937   2.1061   2.5972   2.6122   2.7506   2.8939
     2.9489   3.0868   3.1398   3.1780   3.2016   3.2257   3.2716   3.3563
     3.3920   3.4023   3.4582   3.4704   3.4909   3.5124   3.5809   3.6256
     3.6426   3.6466   3.7698   3.8184   3.8723   3.9394   3.9428   4.0244
     4.1480   4.4023   4.4712   4.5673   5.0629   5.1792   5.2856   5.5166
     7.9375   8.2201   8.3810   8.5174   8.6540   8.8987   8.9417   9.0293
     9.6503  10.3783  10.7239  10.9740  11.6164  12.3476

          k = 0.4167 0.2500-0.1941 ( 11345 PWs)   bands (ev):

   -10.2532 -10.1952 -10.0945 -10.0500 -10.0047  -9.9044  -9.8267  -9.8186
    -0.8274  -0.8048  -0.6675  -0.5362  -0.4831  -0.4258  -0.1886  -0.0834
     0.6976   0.7578   0.9324   0.9465   0.9993   1.1054   1.2468   1.2603
     1.3360   1.4406   1.4556   1.4926   1.5359   1.6297   1.7336   1.8456
     1.9591   2.0218   2.1662   2.2282   2.5340   2.5657   2.7877   2.8520
     2.9529   3.0501   3.0849   3.1425   3.2278   3.2534   3.2735   3.3106
     3.3434   3.3901   3.4465   3.4868   3.5296   3.5521   3.5836   3.6443
     3.6530   3.6655   3.7724   3.8683   3.8865   3.9288   3.9298   4.0198
     4.2292   4.4263   4.4398   4.5444   4.9826   5.1003   5.3173   5.4538
     8.0364   8.2383   8.5465   8.6229   8.6414   8.8398   9.0809   9.1006
     9.6198  10.0041  10.9878  11.4159  11.5370  12.0415

          k =-0.4167-0.2500-0.1941 ( 11345 PWs)   bands (ev):

   -10.2532 -10.1952 -10.0945 -10.0499 -10.0047  -9.9044  -9.8267  -9.8186
    -0.8274  -0.8048  -0.6675  -0.5362  -0.4831  -0.4258  -0.1886  -0.0834
     0.6976   0.7578   0.9324   0.9465   0.9993   1.1054   1.2468   1.2603
     1.3361   1.4406   1.4556   1.4926   1.5359   1.6297   1.7336   1.8456
     1.9591   2.0218   2.1662   2.2282   2.5340   2.5658   2.7877   2.8520
     2.9529   3.0501   3.0849   3.1426   3.2278   3.2534   3.2735   3.3105
     3.3434   3.3901   3.4465   3.4868   3.5296   3.5521   3.5836   3.6443
     3.6530   3.6655   3.7724   3.8683   3.8865   3.9288   3.9298   4.0198
     4.2292   4.4263   4.4398   4.5444   4.9826   5.1003   5.3173   5.4538
     8.0364   8.2383   8.5465   8.6229   8.6414   8.8396   9.0810   9.1007
     9.6198  10.0041  10.9878  11.4159  11.5370  12.0415

          k =-0.2500 0.4167-0.1941 ( 11345 PWs)   bands (ev):

   -10.2532 -10.1952 -10.0945 -10.0500 -10.0047  -9.9044  -9.8267  -9.8186
    -0.8274  -0.8048  -0.6675  -0.5362  -0.4832  -0.4257  -0.1885  -0.0834
     0.6976   0.7578   0.9324   0.9465   0.9993   1.1054   1.2468   1.2603
     1.3360   1.4406   1.4556   1.4926   1.5359   1.6297   1.7337   1.8456
     1.9591   2.0218   2.1662   2.2282   2.5340   2.5658   2.7877   2.8520
     2.9529   3.0501   3.0849   3.1426   3.2278   3.2534   3.2735   3.3106
     3.3434   3.3901   3.4465   3.4868   3.5296   3.5521   3.5836   3.6443
     3.6530   3.6655   3.7724   3.8683   3.8865   3.9289   3.9297   4.0198
     4.2293   4.4264   4.4398   4.5444   4.9826   5.1003   5.3173   5.4538
     8.0364   8.2384   8.5465   8.6229   8.6414   8.8397   9.0809   9.1006
     9.6198  10.0041  10.9877  11.4159  11.5370  12.0415

          k = 0.4167 0.2500-0.3235 ( 11342 PWs)   bands (ev):

   -10.2104 -10.1875 -10.1249 -10.1110  -9.9649  -9.9244  -9.8132  -9.8116
    -0.7945  -0.7863  -0.5670  -0.5400  -0.4838  -0.3662  -0.3442  -0.1694
     0.7469   0.7727   0.8394   0.8668   1.0969   1.1125   1.2009   1.2212
     1.3948   1.4299   1.5001   1.5235   1.5426   1.5720   1.7885   1.8265
     1.9688   1.9924   2.2549   2.3036   2.5292   2.6087   2.6427   2.8292
     2.9312   2.9584   3.0967   3.1169   3.2242   3.2461   3.2994   3.3164
     3.3366   3.3696   3.4904   3.5062   3.5280   3.5313   3.6413   3.6483
     3.6866   3.7220   3.7706   3.8025   3.9147   3.9189   3.9586   4.0080
     4.3102   4.3830   4.4632   4.5053   4.9615   5.0130   5.3303   5.3723
     8.1719   8.2593   8.5790   8.6540   8.8254   8.9887   9.0205   9.1547
     9.6546   9.7301  11.2019  11.3987  11.6671  12.1456

          k =-0.4167-0.2500-0.3235 ( 11342 PWs)   bands (ev):

   -10.2104 -10.1875 -10.1249 -10.1110  -9.9649  -9.9244  -9.8132  -9.8116
    -0.7945  -0.7863  -0.5670  -0.5400  -0.4838  -0.3662  -0.3442  -0.1694
     0.7469   0.7727   0.8394   0.8668   1.0969   1.1125   1.2009   1.2212
     1.3948   1.4299   1.5001   1.5235   1.5426   1.5720   1.7884   1.8265
     1.9688   1.9924   2.2549   2.3036   2.5292   2.6087   2.6427   2.8292
     2.9312   2.9584   3.0967   3.1169   3.2242   3.2460   3.2994   3.3164
     3.3366   3.3696   3.4904   3.5062   3.5280   3.5312   3.6413   3.6483
     3.6866   3.7220   3.7706   3.8025   3.9147   3.9189   3.9586   4.0080
     4.3102   4.3830   4.4631   4.5053   4.9615   5.0130   5.3303   5.3723
     8.1719   8.2593   8.5790   8.6540   8.8254   8.9887   9.0206   9.1548
     9.6546   9.7301  11.2019  11.3987  11.6671  12.1456

          k =-0.2500 0.4167-0.3235 ( 11342 PWs)   bands (ev):

   -10.2103 -10.1876 -10.1249 -10.1110  -9.9649  -9.9245  -9.8132  -9.8116
    -0.7945  -0.7863  -0.5670  -0.5400  -0.4838  -0.3662  -0.3442  -0.1694
     0.7469   0.7727   0.8394   0.8668   1.0969   1.1125   1.2009   1.2212
     1.3948   1.4299   1.5001   1.5235   1.5426   1.5720   1.7885   1.8265
     1.9688   1.9924   2.2548   2.3036   2.5292   2.6087   2.6427   2.8292
     2.9312   2.9584   3.0967   3.1169   3.2242   3.2461   3.2994   3.3164
     3.3366   3.3696   3.4904   3.5062   3.5280   3.5313   3.6413   3.6483
     3.6866   3.7220   3.7706   3.8025   3.9147   3.9189   3.9586   4.0080
     4.3102   4.3830   4.4632   4.5052   4.9615   5.0129   5.3303   5.3723
     8.1719   8.2594   8.5790   8.6541   8.8254   8.9887   9.0206   9.1547
     9.6546   9.7301  11.2019  11.3987  11.6671  12.1456

          k = 0.4167 0.4167-0.0647 ( 11364 PWs)   bands (ev):

   -10.1887 -10.1119 -10.0841 -10.0260  -9.9760  -9.9641  -9.9229  -9.8894
    -0.7254  -0.7168  -0.7121  -0.6356  -0.3619  -0.2405  -0.1599  -0.0653
     0.7042   0.8541   0.8706   0.8776   0.9339   0.9948   1.0931   1.1583
     1.3870   1.4773   1.4776   1.4956   1.6176   1.6497   1.6634   1.7446
     1.7778   1.8200   1.9034   1.9724   2.6687   2.7678   2.7945   2.9728
     3.0250   3.1585   3.1687   3.1896   3.1958   3.2484   3.2599   3.3903
     3.4313   3.4750   3.4769   3.5040   3.5375   3.5542   3.6061   3.6066
     3.7980   3.8097   3.8225   3.8873   3.8977   3.9028   3.9265   4.0320
     4.1101   4.2064   4.3148   4.3152   5.2618   5.2795   5.3314   5.4403
     8.1272   8.3492   8.4095   8.5594   8.6353   8.7949   8.7987   8.8087
     9.7420  10.1172  10.4072  10.4255  12.4766  12.9793

          k = 0.4167 0.4167-0.1941 ( 11349 PWs)   bands (ev):

   -10.1675 -10.1240 -10.0655 -10.0475 -10.0130  -9.9379  -9.9100  -9.8986
    -0.6800  -0.6588  -0.6538  -0.5526  -0.3938  -0.3461  -0.1753  -0.1429
     0.6088   0.6909   0.7317   0.7986   1.0776   1.1195   1.2485   1.2819
     1.3719   1.4390   1.4615   1.4753   1.6437   1.6608   1.6861   1.7382
     1.7543   1.7645   2.0090   2.0156   2.5666   2.6340   2.6678   2.8328
     3.1135   3.1674   3.2035   3.2107   3.2370   3.2635   3.3859   3.3980
     3.4453   3.4535   3.5002   3.5051   3.5237   3.5439   3.5833   3.6009
     3.8442   3.8537   3.8691   3.9167   3.9421   3.9458   3.9629   3.9760
     4.1506   4.2328   4.2935   4.3027   5.1362   5.1905   5.3119   5.3517
     8.1799   8.3732   8.4056   8.5789   8.6338   8.7924   8.8011   8.9309
     9.9204   9.9874  10.6352  10.8247  12.2967  12.6925

          k = 0.4167 0.4167-0.3235 ( 11317 PWs)   bands (ev):

   -10.1283 -10.1191 -10.0985 -10.0774  -9.9924  -9.9470  -9.9083  -9.8940
    -0.6011  -0.5650  -0.5630  -0.4818  -0.4354  -0.3838  -0.3396  -0.2316
     0.5953   0.6268   0.6414   0.6801   1.2058   1.2523   1.2527   1.3783
     1.3941   1.4065   1.4148   1.4599   1.6810   1.6869   1.7017   1.7203
     1.7267   1.7285   2.0779   2.0917   2.5145   2.5514   2.5558   2.6388
     3.1964   3.1980   3.2155   3.2270   3.2793   3.3271   3.3628   3.4039
     3.4060   3.4206   3.4857   3.4975   3.5506   3.5720   3.6342   3.6576
     3.8338   3.8373   3.8575   3.9042   3.9940   4.0044   4.0275   4.0398
     4.1992   4.2514   4.2646   4.2870   5.0493   5.0799   5.2566   5.2616
     8.2530   8.3271   8.4691   8.5603   8.7300   8.7836   8.8333   8.9213
    10.0592  10.0909  10.9872  11.1365  12.0529  12.3074

     the Fermi energy is     6.5069 ev
* XDM dispersion
  a1 =     0.683600
  a2 (ang) =     1.367700
  a2 (bohr) =     2.584578
 
+ Volume and moments
# All results in atomic units.
# i          V                 Vfree               M1                 M2                 M3
  1   1.1673858503E+02   1.1736151886E+02   8.6452833768E+00   1.5521825705E+02   3.1616942761E+03
  2   1.1673915270E+02   1.1736151886E+02   8.6525485486E+00   1.5536276098E+02   3.1636160276E+03
  3   1.1673915270E+02   1.1736151886E+02   8.6525485486E+00   1.5536276098E+02   3.1636160276E+03
  4   1.1673897877E+02   1.1736151886E+02   8.6427171510E+00   1.5527196835E+02   3.1633843545E+03
  5   1.1673915270E+02   1.1736151886E+02   8.6525485486E+00   1.5536276098E+02   3.1636160276E+03
  6   1.1673915270E+02   1.1736151886E+02   8.6525485486E+00   1.5536276098E+02   3.1636160276E+03
  7   1.1673770471E+02   1.1736151886E+02   8.6581168331E+00   1.5542489901E+02   3.1645470494E+03
  8   1.1673927526E+02   1.1736151886E+02   8.6686322708E+00   1.5556306342E+02   3.1651530483E+03
  9   6.4479295047E+01   6.5441741943E+01   7.4574699191E+00   1.0257680191E+02   1.4656881811E+03
 10   6.4479295047E+01   6.5441741943E+01   7.4574699191E+00   1.0257680191E+02   1.4656881811E+03
 11   6.4477707023E+01   6.5441741943E+01   7.4505929781E+00   1.0244504644E+02   1.4638339928E+03
 12   6.4477707023E+01   6.5441741943E+01   7.4505929781E+00   1.0244504644E+02   1.4638339928E+03
 13   6.4477824065E+01   6.5441741943E+01   7.4563001413E+00   1.0256685161E+02   1.4657242204E+03
 14   6.4477824065E+01   6.5441741943E+01   7.4563001413E+00   1.0256685161E+02   1.4657242204E+03
 15   6.4477842326E+01   6.5441741943E+01   7.4607895043E+00   1.0263784227E+02   1.4667163240E+03
 16   6.4477842326E+01   6.5441741943E+01   7.4607895043E+00   1.0263784227E+02   1.4667163240E+03
 
+ Dispersion coefficients
# All results in atomic units.
# i   j          C6                 C8                 C10                Rc                Rvdw
  1   1   1.6829163958E+02   9.0645733056E+03   4.7403061911E+05   7.2852398504E+00   7.5647683937E+00
  2   1   1.6836273239E+02   9.0688130265E+03   4.7422289215E+05   7.2852101836E+00   7.5647481135E+00
  2   2   1.6843388461E+02   9.0730562938E+03   4.7441532764E+05   7.2851805270E+00   7.5647278402E+00
  3   1   1.6836273239E+02   9.0688130265E+03   4.7422289215E+05   7.2852101836E+00   7.5647481135E+00
  3   2   1.6843388461E+02   9.0730562938E+03   4.7441532764E+05   7.2851805270E+00   7.5647278402E+00
  3   3   1.6843388461E+02   9.0730562938E+03   4.7441532764E+05   7.2851805270E+00   7.5647278402E+00
  4   1   1.6826694214E+02   9.0661571650E+03   4.7420990325E+05   7.2861969888E+00   7.5654226935E+00
  4   2   1.6833801396E+02   9.0703969261E+03   4.7440223673E+05   7.2861673884E+00   7.5654024587E+00
  4   3   1.6833801396E+02   9.0703969261E+03   4.7440223673E+05   7.2861673884E+00   7.5654024587E+00
  4   4   1.6824225211E+02   9.0677405687E+03   4.7438922945E+05   7.2871541161E+00   7.5660769857E+00
  5   1   1.6836273239E+02   9.0688130265E+03   4.7422289215E+05   7.2852101836E+00   7.5647481135E+00
  5   2   1.6843388461E+02   9.0730562938E+03   4.7441532764E+05   7.2851805270E+00   7.5647278402E+00
  5   3   1.6843388461E+02   9.0730562938E+03   4.7441532764E+05   7.2851805270E+00   7.5647278402E+00
  5   4   1.6833801396E+02   9.0703969261E+03   4.7440223673E+05   7.2861673884E+00   7.5654024587E+00
  5   5   1.6843388461E+02   9.0730562938E+03   4.7441532764E+05   7.2851805270E+00   7.5647278402E+00
  6   1   1.6836273239E+02   9.0688130265E+03   4.7422289215E+05   7.2852101836E+00   7.5647481135E+00
  6   2   1.6843388461E+02   9.0730562938E+03   4.7441532764E+05   7.2851805270E+00   7.5647278402E+00
  6   3   1.6843388461E+02   9.0730562938E+03   4.7441532764E+05   7.2851805270E+00   7.5647278402E+00
  6   4   1.6833801396E+02   9.0703969261E+03   4.7440223673E+05   7.2861673884E+00   7.5654024587E+00
  6   5   1.6843388461E+02   9.0730562938E+03   4.7441532764E+05   7.2851805270E+00   7.5647278402E+00
  6   6   1.6843388461E+02   9.0730562938E+03   4.7441532764E+05   7.2851805270E+00   7.5647278402E+00
  7   1   1.6841582138E+02   9.0705684343E+03   4.7427393138E+05   7.2848316707E+00   7.5644893620E+00
  7   2   1.6848701909E+02   9.0748138155E+03   4.7446644586E+05   7.2848019891E+00   7.5644690717E+00
  7   3   1.6848701909E+02   9.0748138155E+03   4.7446644586E+05   7.2848019891E+00   7.5644690717E+00
  7   4   1.6839108686E+02   9.0721525490E+03   4.7445328793E+05   7.2857888864E+00   7.5651437147E+00
  7   5   1.6848701909E+02   9.0748138155E+03   4.7446644586E+05   7.2848019891E+00   7.5644690717E+00
  7   6   1.6848701909E+02   9.0748138155E+03   4.7446644586E+05   7.2848019891E+00   7.5644690717E+00
  7   7   1.6854018846E+02   9.0765725188E+03   4.7451761365E+05   7.2844234444E+00   7.5642102986E+00
  8   1   1.6851909020E+02   9.0746547454E+03   4.7436469627E+05   7.2840647004E+00   7.5639650612E+00
  8   2   1.6859037383E+02   9.0789043812E+03   4.7455735643E+05   7.2840349867E+00   7.5639447488E+00
  8   3   1.6859037383E+02   9.0789043812E+03   4.7455735643E+05   7.2840349867E+00   7.5639447488E+00
  8   4   1.6849432534E+02   9.0762392303E+03   4.7454410173E+05   7.2850220387E+00   7.5646194976E+00
  8   5   1.6859037383E+02   9.0789043812E+03   4.7455735643E+05   7.2840349867E+00   7.5639447488E+00
  8   6   1.6859037383E+02   9.0789043812E+03   4.7455735643E+05   7.2840349867E+00   7.5639447488E+00
  8   7   1.6864360899E+02   9.0806654843E+03   4.7460860392E+05   7.2836563907E+00   7.5636859407E+00
  8   8   1.6874715377E+02   9.0847633276E+03   4.7469972231E+05   7.2828891900E+00   7.5631614822E+00
  9   1   8.7533159109E+01   4.1633838915E+03   1.8922259298E+05   6.8189703637E+00   7.2460265726E+00
  9   2   8.7584656938E+01   4.1660468562E+03   1.8932725727E+05   6.8189121800E+00   7.2459867982E+00
  9   3   8.7584656938E+01   4.1660468562E+03   1.8932725727E+05   6.8189121800E+00   7.2459867982E+00
  9   4   8.7515097022E+01   4.1640404200E+03   1.8929515347E+05   6.8199776165E+00   7.2467151306E+00
  9   5   8.7584656938E+01   4.1660468562E+03   1.8932725727E+05   6.8189121800E+00   7.2459867982E+00
  9   6   8.7584656938E+01   4.1660468562E+03   1.8932725727E+05   6.8189121800E+00   7.2459867982E+00
  9   7   8.7623682713E+01   4.1673286507E+03   1.8936712693E+05   6.8185111978E+00   7.2457126867E+00
  9   8   8.7698314629E+01   4.1701102092E+03   1.8943333883E+05   6.8176576300E+00   7.2451291878E+00
  9   9   5.4048051872E+01   2.2302777098E+03   8.5438496844E+04   6.3062093700E+00   6.8955031573E+00
 10   1   8.7533159109E+01   4.1633838915E+03   1.8922259298E+05   6.8189703637E+00   7.2460265726E+00
 10   2   8.7584656938E+01   4.1660468562E+03   1.8932725727E+05   6.8189121800E+00   7.2459867982E+00
 10   3   8.7584656938E+01   4.1660468562E+03   1.8932725727E+05   6.8189121800E+00   7.2459867982E+00
 10   4   8.7515097022E+01   4.1640404200E+03   1.8929515347E+05   6.8199776165E+00   7.2467151306E+00
 10   5   8.7584656938E+01   4.1660468562E+03   1.8932725727E+05   6.8189121800E+00   7.2459867982E+00
 10   6   8.7584656938E+01   4.1660468562E+03   1.8932725727E+05   6.8189121800E+00   7.2459867982E+00
 10   7   8.7623682713E+01   4.1673286507E+03   1.8936712693E+05   6.8185111978E+00   7.2457126867E+00
 10   8   8.7698314629E+01   4.1701102092E+03   1.8943333883E+05   6.8176576300E+00   7.2451291878E+00
 10   9   5.4048051872E+01   2.2302777098E+03   8.5438496844E+04   6.3062093700E+00   6.8955031573E+00
 10  10   5.4048051872E+01   2.2302777098E+03   8.5438496844E+04   6.3062093700E+00   6.8955031573E+00
 11   1   8.7507302673E+01   4.1614993351E+03   1.8912197804E+05   6.8185663046E+00   7.2457503577E+00
 11   2   8.7558771457E+01   4.1641604701E+03   1.8922655222E+05   6.8185080807E+00   7.2457105559E+00
 11   3   8.7558771457E+01   4.1641604701E+03   1.8922655222E+05   6.8185080807E+00   7.2457105559E+00
 11   4   8.7489250889E+01   4.1621560410E+03   1.8919451591E+05   6.8195735427E+00   7.2464389057E+00
 11   5   8.7558771457E+01   4.1641604701E+03   1.8922655222E+05   6.8185080807E+00   7.2457105559E+00
 11   6   8.7558771457E+01   4.1641604701E+03   1.8922655222E+05   6.8185080807E+00   7.2457105559E+00
 11   7   8.7597774829E+01   4.1654410770E+03   1.8926637470E+05   6.8181071003E+00   7.2454364457E+00
 11   8   8.7672364758E+01   4.1682203077E+03   1.8933249660E+05   6.8172534744E+00   7.2448529070E+00
 11   9   5.4022455090E+01   2.2288172672E+03   8.5375178149E+04   6.3057855308E+00   6.8952134208E+00
 11  10   5.4022455090E+01   2.2288172672E+03   8.5375178149E+04   6.3057855308E+00   6.8952134208E+00
 11  11   5.3996881316E+01   2.2273581568E+03   8.5311923105E+04   6.3053617126E+00   6.8949236987E+00
 12   1   8.7507302673E+01   4.1614993351E+03   1.8912197804E+05   6.8185663046E+00   7.2457503577E+00
 12   2   8.7558771457E+01   4.1641604701E+03   1.8922655222E+05   6.8185080807E+00   7.2457105559E+00
 12   3   8.7558771457E+01   4.1641604701E+03   1.8922655222E+05   6.8185080807E+00   7.2457105559E+00
 12   4   8.7489250889E+01   4.1621560410E+03   1.8919451591E+05   6.8195735427E+00   7.2464389057E+00
 12   5   8.7558771457E+01   4.1641604701E+03   1.8922655222E+05   6.8185080807E+00   7.2457105559E+00
 12   6   8.7558771457E+01   4.1641604701E+03   1.8922655222E+05   6.8185080807E+00   7.2457105559E+00
 12   7   8.7597774829E+01   4.1654410770E+03   1.8926637470E+05   6.8181071003E+00   7.2454364457E+00
 12   8   8.7672364758E+01   4.1682203077E+03   1.8933249660E+05   6.8172534744E+00   7.2448529070E+00
 12   9   5.4022455090E+01   2.2288172672E+03   8.5375178149E+04   6.3057855308E+00   6.8952134208E+00
 12  10   5.4022455090E+01   2.2288172672E+03   8.5375178149E+04   6.3057855308E+00   6.8952134208E+00
 12  11   5.3996881316E+01   2.2273581568E+03   8.5311923105E+04   6.3053617126E+00   6.8949236987E+00
 12  12   5.3996881316E+01   2.2273581568E+03   8.5311923105E+04   6.3053617126E+00   6.8949236987E+00
 13   1   8.7527624364E+01   4.1632287514E+03   1.8922230709E+05   6.8190754572E+00   7.2460984145E+00
 13   2   8.7579116872E+01   4.1658915131E+03   1.8932696766E+05   6.8190172802E+00   7.2460586447E+00
 13   3   8.7579116872E+01   4.1658915131E+03   1.8932696766E+05   6.8190172802E+00   7.2460586447E+00
 13   4   8.7509564161E+01   4.1638852513E+03   1.8929486568E+05   6.8200826946E+00   7.2467869620E+00
 13   5   8.7579116872E+01   4.1658915131E+03   1.8932696766E+05   6.8190172802E+00   7.2460586447E+00
 13   6   8.7579116872E+01   4.1658915131E+03   1.8932696766E+05   6.8190172802E+00   7.2460586447E+00
 13   7   8.7618138555E+01   4.1671731975E+03   1.8936683517E+05   6.8186163048E+00   7.2457845379E+00
 13   8   8.7692762775E+01   4.1699545307E+03   1.8943304464E+05   6.8177627602E+00   7.2452010548E+00
 13   9   5.4043196139E+01   2.2301440920E+03   8.5437247018E+04   6.3063276542E+00   6.8955840164E+00
 13  10   5.4043196139E+01   2.2301440920E+03   8.5437247018E+04   6.3063276542E+00   6.8955840164E+00
 13  11   5.4017603282E+01   2.2286838161E+03   8.5373932605E+04   6.3059038220E+00   6.8952942847E+00
 13  12   5.4017603282E+01   2.2286838161E+03   8.5373932605E+04   6.3059038220E+00   6.8952942847E+00
 13  13   5.4038341084E+01   2.2300104902E+03   8.5435997264E+04   6.3064459347E+00   6.8956648729E+00
 14   1   8.7527624364E+01   4.1632287514E+03   1.8922230709E+05   6.8190754572E+00   7.2460984145E+00
 14   2   8.7579116872E+01   4.1658915131E+03   1.8932696766E+05   6.8190172802E+00   7.2460586447E+00
 14   3   8.7579116872E+01   4.1658915131E+03   1.8932696766E+05   6.8190172802E+00   7.2460586447E+00
 14   4   8.7509564161E+01   4.1638852513E+03   1.8929486568E+05   6.8200826946E+00   7.2467869620E+00
 14   5   8.7579116872E+01   4.1658915131E+03   1.8932696766E+05   6.8190172802E+00   7.2460586447E+00
 14   6   8.7579116872E+01   4.1658915131E+03   1.8932696766E+05   6.8190172802E+00   7.2460586447E+00
 14   7   8.7618138555E+01   4.1671731975E+03   1.8936683517E+05   6.8186163048E+00   7.2457845379E+00
 14   8   8.7692762775E+01   4.1699545307E+03   1.8943304464E+05   6.8177627602E+00   7.2452010548E+00
 14   9   5.4043196139E+01   2.2301440920E+03   8.5437247018E+04   6.3063276542E+00   6.8955840164E+00
 14  10   5.4043196139E+01   2.2301440920E+03   8.5437247018E+04   6.3063276542E+00   6.8955840164E+00
 14  11   5.4017603282E+01   2.2286838161E+03   8.5373932605E+04   6.3059038220E+00   6.8952942847E+00
 14  12   5.4017603282E+01   2.2286838161E+03   8.5373932605E+04   6.3059038220E+00   6.8952942847E+00
 14  13   5.4038341084E+01   2.2300104902E+03   8.5435997264E+04   6.3064459347E+00   6.8956648729E+00
 14  14   5.4038341084E+01   2.2300104902E+03   8.5435997264E+04   6.3064459347E+00   6.8956648729E+00
 15   1   8.7543524678E+01   4.1641476094E+03   1.8926742582E+05   6.8191725139E+00   7.2461647624E+00
 15   2   8.7595035809E+01   4.1668113914E+03   1.8937213250E+05   6.8191143468E+00   7.2461249994E+00
 15   3   8.7595035809E+01   4.1668113914E+03   1.8937213250E+05   6.8191143468E+00   7.2461249994E+00
 15   4   8.7525457864E+01   4.1648040366E+03   1.8933999343E+05   6.8201797563E+00   7.2468533134E+00
 15   5   8.7595035809E+01   4.1668113914E+03   1.8937213250E+05   6.8191143468E+00   7.2461249994E+00
 15   6   8.7595035809E+01   4.1668113914E+03   1.8937213250E+05   6.8191143468E+00   7.2461249994E+00
 15   7   8.7634071868E+01   4.1680937276E+03   1.8941202580E+05   6.8187133703E+00   7.2458508919E+00
 15   8   8.7708723007E+01   4.1708763401E+03   1.8947828265E+05   6.8178598390E+00   7.2452674179E+00
 15   9   5.4059469421E+01   2.2309160101E+03   8.5468428149E+04   6.3064287869E+00   6.8956531507E+00
 15  10   5.4059469421E+01   2.2309160101E+03   8.5468428149E+04   6.3064287869E+00   6.8956531507E+00
 15  11   5.4033861560E+01   2.2294549459E+03   8.5405079153E+04   6.3060049486E+00   6.8953634148E+00
 15  12   5.4033861560E+01   2.2294549459E+03   8.5405079153E+04   6.3060049486E+00   6.8953634148E+00
 15  13   5.4054611814E+01   2.2307823141E+03   8.5467176037E+04   6.3065470658E+00   6.8957340061E+00
 15  14   5.4054611814E+01   2.2307823141E+03   8.5467176037E+04   6.3065470658E+00   6.8957340061E+00
 15  15   5.4070892337E+01   2.2315546026E+03   8.5498373925E+04   6.3066481987E+00   6.8958031405E+00
 16   1   8.7543524678E+01   4.1641476094E+03   1.8926742582E+05   6.8191725139E+00   7.2461647624E+00
 16   2   8.7595035809E+01   4.1668113914E+03   1.8937213250E+05   6.8191143468E+00   7.2461249994E+00
 16   3   8.7595035809E+01   4.1668113914E+03   1.8937213250E+05   6.8191143468E+00   7.2461249994E+00
 16   4   8.7525457864E+01   4.1648040366E+03   1.8933999343E+05   6.8201797563E+00   7.2468533134E+00
 16   5   8.7595035809E+01   4.1668113914E+03   1.8937213250E+05   6.8191143468E+00   7.2461249994E+00
 16   6   8.7595035809E+01   4.1668113914E+03   1.8937213250E+05   6.8191143468E+00   7.2461249994E+00
 16   7   8.7634071868E+01   4.1680937276E+03   1.8941202580E+05   6.8187133703E+00   7.2458508919E+00
 16   8   8.7708723007E+01   4.1708763401E+03   1.8947828265E+05   6.8178598390E+00   7.2452674179E+00
 16   9   5.4059469421E+01   2.2309160101E+03   8.5468428149E+04   6.3064287869E+00   6.8956531507E+00
 16  10   5.4059469421E+01   2.2309160101E+03   8.5468428149E+04   6.3064287869E+00   6.8956531507E+00
 16  11   5.4033861560E+01   2.2294549459E+03   8.5405079153E+04   6.3060049486E+00   6.8953634148E+00
 16  12   5.4033861560E+01   2.2294549459E+03   8.5405079153E+04   6.3060049486E+00   6.8953634148E+00
 16  13   5.4054611814E+01   2.2307823141E+03   8.5467176037E+04   6.3065470658E+00   6.8957340061E+00
 16  14   5.4054611814E+01   2.2307823141E+03   8.5467176037E+04   6.3065470658E+00   6.8957340061E+00
 16  15   5.4070892337E+01   2.2315546026E+03   8.5498373925E+04   6.3066481987E+00   6.8958031405E+00
 16  16   5.4070892337E+01   2.2315546026E+03   8.5498373925E+04   6.3066481987E+00   6.8958031405E+00
 
+ van der Waals energy
  Evdw   =  -1.725120371437E-01 Hartree,  -3.450240742873E-01 Ry
  Evdw6 =  -7.441894570773E-02 Hartree,  -1.488378914155E-01 Ry
  Evdw8 =  -5.447731974387E-02 Hartree,  -1.089546394877E-01 Ry
  Evdw10 =  -4.361577169206E-02 Hartree,  -8.723154338413E-02 Ry
  Evdw9  =   0.000000000000E+00 Hartree,   0.000000000000E+00 Ry
  Fvdw (01) =   1.497717869987E-17   1.964733839069E-18  -2.081921026742E-18  Hartree/bohr
            =   2.995435739975E-17   3.929467678137E-18  -4.163842053484E-18  Ry/bohr
  Fvdw (02) =  -1.598655826468E-07  -2.817889312387E-07  -7.769837819254E-07  Hartree/bohr
            =  -3.197311652937E-07  -5.635778624774E-07  -1.553967563851E-06  Ry/bohr
  Fvdw (03) =   1.598655826381E-07   2.817889312416E-07   7.769837819283E-07  Hartree/bohr
            =   3.197311652761E-07   5.635778624832E-07   1.553967563857E-06  Ry/bohr
[...]
  9   7   8.8731666649E+01   4.2226854248E+03   1.9192613614E+05   6.8199782657E+00   7.2467155744E+00
  9   8   8.8727803237E+01   4.2225160240E+03   1.9191954014E+05   6.8199938759E+00   7.2467262455E+00
  9   9   5.4565499724E+01   2.2527072805E+03   8.6351183699E+04   6.3079370011E+00   6.8966841659E+00
 10   1   8.8713645383E+01   4.2219217231E+03   1.9189903986E+05   6.8200836263E+00   7.2467875989E+00
 10   2   8.8745834170E+01   4.2223227590E+03   1.9187714191E+05   6.8192697987E+00   7.2462312663E+00
 10   3   8.8745834170E+01   4.2223227590E+03   1.9187714191E+05   6.8192697987E+00   7.2462312663E+00
 10   4   8.8716603046E+01   4.2220546281E+03   1.9190446870E+05   6.8200750347E+00   7.2467817257E+00
 10   5   8.8745834170E+01   4.2223227590E+03   1.9187714191E+05   6.8192697987E+00   7.2462312663E+00
 10   6   8.8745834170E+01   4.2223227590E+03   1.9187714191E+05   6.8192697987E+00   7.2462312663E+00
 10   7   8.8731666649E+01   4.2226854248E+03   1.9192613614E+05   6.8199782657E+00   7.2467155744E+00
 10   8   8.8727803237E+01   4.2225160240E+03   1.9191954014E+05   6.8199938759E+00   7.2467262455E+00
 10   9   5.4565499724E+01   2.2527072805E+03   8.6351183699E+04   6.3079370011E+00   6.8966841659E+00
 10  10   5.4565499724E+01   2.2527072805E+03   8.6351183699E+04   6.3079370011E+00   6.8966841659E+00
 11   1   8.8673798164E+01   4.2201429418E+03   1.9183779267E+05   6.8203044032E+00   7.2469385220E+00
 11   2   8.8705959377E+01   4.2205432161E+03   1.9181588245E+05   6.8194906310E+00   7.2463822273E+00
 11   3   8.8705959377E+01   4.2205432161E+03   1.9181588245E+05   6.8194906310E+00   7.2463822273E+00
 11   4   8.8676753390E+01   4.2202757382E+03   1.9184321749E+05   6.8202958122E+00   7.2469326492E+00
 11   5   8.8705959377E+01   4.2205432161E+03   1.9181588245E+05   6.8194906310E+00   7.2463822273E+00
 11   6   8.8705959377E+01   4.2205432161E+03   1.9181588245E+05   6.8194906310E+00   7.2463822273E+00
 11   7   8.8691803953E+01   4.2209059730E+03   1.9186486565E+05   6.8201990505E+00   7.2468665028E+00
 11   8   8.8687943775E+01   4.2207367145E+03   1.9185827480E+05   6.8202146595E+00   7.2468771732E+00
 11   9   5.4526417261E+01   2.2511660743E+03   8.6303824276E+04   6.3081997674E+00   6.8968637929E+00
 11  10   5.4526417261E+01   2.2511660743E+03   8.6303824276E+04   6.3081997674E+00   6.8968637929E+00
 11  11   5.4487387828E+01   2.2496269538E+03   8.6256528211E+04   6.3084625067E+00   6.8970434015E+00
 12   1   8.8673798164E+01   4.2201429418E+03   1.9183779267E+05   6.8203044032E+00   7.2469385220E+00
 12   2   8.8705959377E+01   4.2205432161E+03   1.9181588245E+05   6.8194906310E+00   7.2463822273E+00
 12   3   8.8705959377E+01   4.2205432161E+03   1.9181588245E+05   6.8194906310E+00   7.2463822273E+00
 12   4   8.8676753390E+01   4.2202757382E+03   1.9184321749E+05   6.8202958122E+00   7.2469326492E+00
 12   5   8.8705959377E+01   4.2205432161E+03   1.9181588245E+05   6.8194906310E+00   7.2463822273E+00
 12   6   8.8705959377E+01   4.2205432161E+03   1.9181588245E+05   6.8194906310E+00   7.2463822273E+00
 12   7   8.8691803953E+01   4.2209059730E+03   1.9186486565E+05   6.8201990505E+00   7.2468665028E+00
 12   8   8.8687943775E+01   4.2207367145E+03   1.9185827480E+05   6.8202146595E+00   7.2468771732E+00
 12   9   5.4526417261E+01   2.2511660743E+03   8.6303824276E+04   6.3081997674E+00   6.8968637929E+00
 12  10   5.4526417261E+01   2.2511660743E+03   8.6303824276E+04   6.3081997674E+00   6.8968637929E+00
 12  11   5.4487387828E+01   2.2496269538E+03   8.6256528211E+04   6.3084625067E+00   6.8970434015E+00
 12  12   5.4487387828E+01   2.2496269538E+03   8.6256528211E+04   6.3084625067E+00   6.8970434015E+00
 13   1   8.8713764773E+01   4.2219405449E+03   1.9190052112E+05   6.8200944907E+00   7.2467950258E+00
 13   2   8.8745953621E+01   4.2223415869E+03   1.9187862332E+05   6.8192806643E+00   7.2462386940E+00
 13   3   8.8745953621E+01   4.2223415869E+03   1.9187862332E+05   6.8192806643E+00   7.2462386940E+00
 13   4   8.8716722441E+01   4.2220734505E+03   1.9190595001E+05   6.8200858992E+00   7.2467891526E+00
 13   5   8.8745953621E+01   4.2223415869E+03   1.9187862332E+05   6.8192806643E+00   7.2462386940E+00
 13   6   8.8745953621E+01   4.2223415869E+03   1.9187862332E+05   6.8192806643E+00   7.2462386940E+00
 13   7   8.8731786073E+01   4.2227042508E+03   1.9192761769E+05   6.8199891305E+00   7.2467230015E+00
 13   8   8.8727922654E+01   4.2225348490E+03   1.9192102162E+05   6.8200047406E+00   7.2467336726E+00
 13   9   5.4565592173E+01   2.2527191793E+03   8.6351987109E+04   6.3079489929E+00   6.8966923635E+00
 13  10   5.4565592173E+01   2.2527191793E+03   8.6351987109E+04   6.3079489929E+00   6.8966923635E+00
 13  11   5.4526509611E+01   2.2511779633E+03   8.6304627104E+04   6.3082117581E+00   6.8968719898E+00
 13  12   5.4526509611E+01   2.2511779633E+03   8.6304627104E+04   6.3082117581E+00   6.8968719898E+00
 13  13   5.4565684622E+01   2.2527310781E+03   8.6352790524E+04   6.3079609848E+00   6.8967005611E+00
 14   1   8.8713764773E+01   4.2219405449E+03   1.9190052112E+05   6.8200944907E+00   7.2467950258E+00
 14   2   8.8745953621E+01   4.2223415869E+03   1.9187862332E+05   6.8192806643E+00   7.2462386940E+00
 14   3   8.8745953621E+01   4.2223415869E+03   1.9187862332E+05   6.8192806643E+00   7.2462386940E+00
 14   4   8.8716722441E+01   4.2220734505E+03   1.9190595001E+05   6.8200858992E+00   7.2467891526E+00
 14   5   8.8745953621E+01   4.2223415869E+03   1.9187862332E+05   6.8192806643E+00   7.2462386940E+00
 14   6   8.8745953621E+01   4.2223415869E+03   1.9187862332E+05   6.8192806643E+00   7.2462386940E+00
 14   7   8.8731786073E+01   4.2227042508E+03   1.9192761769E+05   6.8199891305E+00   7.2467230015E+00
 14   8   8.8727922654E+01   4.2225348490E+03   1.9192102162E+05   6.8200047406E+00   7.2467336726E+00
 14   9   5.4565592173E+01   2.2527191793E+03   8.6351987109E+04   6.3079489929E+00   6.8966923635E+00
 14  10   5.4565592173E+01   2.2527191793E+03   8.6351987109E+04   6.3079489929E+00   6.8966923635E+00
 14  11   5.4526509611E+01   2.2511779633E+03   8.6304627104E+04   6.3082117581E+00   6.8968719898E+00
 14  12   5.4526509611E+01   2.2511779633E+03   8.6304627104E+04   6.3082117581E+00   6.8968719898E+00
 14  13   5.4565684622E+01   2.2527310781E+03   8.6352790524E+04   6.3079609848E+00   6.8967005611E+00
 14  14   5.4565684622E+01   2.2527310781E+03   8.6352790524E+04   6.3079609848E+00   6.8967005611E+00
 15   1   8.8673882039E+01   4.2201504190E+03   1.9183829550E+05   6.8203072594E+00   7.2469404744E+00
 15   2   8.8706043266E+01   4.2205506942E+03   1.9181638526E+05   6.8194934874E+00   7.2463841799E+00
 15   3   8.8706043266E+01   4.2205506942E+03   1.9181638526E+05   6.8194934874E+00   7.2463841799E+00
 15   4   8.8676837266E+01   4.2202832156E+03   1.9184372033E+05   6.8202986684E+00   7.2469346017E+00
 15   5   8.8706043266E+01   4.2205506942E+03   1.9181638526E+05   6.8194934874E+00   7.2463841799E+00
 15   6   8.8706043266E+01   4.2205506942E+03   1.9181638526E+05   6.8194934874E+00   7.2463841799E+00
 15   7   8.8691887836E+01   4.2209134512E+03   1.9186536855E+05   6.8202019067E+00   7.2468684554E+00
 15   8   8.8688027657E+01   4.2207441924E+03   1.9185877769E+05   6.8202175157E+00   7.2468791257E+00
 15   9   5.4526451517E+01   2.2511696318E+03   8.6304050888E+04   6.3082029157E+00   6.8968659451E+00
 15  10   5.4526451517E+01   2.2511696318E+03   8.6304050888E+04   6.3082029157E+00   6.8968659451E+00
 15  11   5.4487422089E+01   2.2496305101E+03   8.6256754722E+04   6.3084656547E+00   6.8970455535E+00
 15  12   5.4487422089E+01   2.2496305101E+03   8.6256754722E+04   6.3084656547E+00   6.8970455535E+00
 15  13   5.4526543867E+01   2.2511815208E+03   8.6304853717E+04   6.3082149064E+00   6.8968741420E+00
 15  14   5.4526543867E+01   2.2511815208E+03   8.6304853717E+04   6.3082149064E+00   6.8968741420E+00
 15  15   5.4487456350E+01   2.2496340663E+03   8.6256981233E+04   6.3084688028E+00   6.8970477055E+00
 16   1   8.8673882039E+01   4.2201504190E+03   1.9183829550E+05   6.8203072594E+00   7.2469404744E+00
 16   2   8.8706043266E+01   4.2205506942E+03   1.9181638526E+05   6.8194934874E+00   7.2463841799E+00
 16   3   8.8706043266E+01   4.2205506942E+03   1.9181638526E+05   6.8194934874E+00   7.2463841799E+00
 16   4   8.8676837266E+01   4.2202832156E+03   1.9184372033E+05   6.8202986684E+00   7.2469346017E+00
 16   5   8.8706043266E+01   4.2205506942E+03   1.9181638526E+05   6.8194934874E+00   7.2463841799E+00
 16   6   8.8706043266E+01   4.2205506942E+03   1.9181638526E+05   6.8194934874E+00   7.2463841799E+00
 16   7   8.8691887836E+01   4.2209134512E+03   1.9186536855E+05   6.8202019067E+00   7.2468684554E+00
 16   8   8.8688027657E+01   4.2207441924E+03   1.9185877769E+05   6.8202175157E+00   7.2468791257E+00
 16   9   5.4526451517E+01   2.2511696318E+03   8.6304050888E+04   6.3082029157E+00   6.8968659451E+00
 16  10   5.4526451517E+01   2.2511696318E+03   8.6304050888E+04   6.3082029157E+00   6.8968659451E+00
 16  11   5.4487422089E+01   2.2496305101E+03   8.6256754722E+04   6.3084656547E+00   6.8970455535E+00
 16  12   5.4487422089E+01   2.2496305101E+03   8.6256754722E+04   6.3084656547E+00   6.8970455535E+00
 16  13   5.4526543867E+01   2.2511815208E+03   8.6304853717E+04   6.3082149064E+00   6.8968741420E+00
 16  14   5.4526543867E+01   2.2511815208E+03   8.6304853717E+04   6.3082149064E+00   6.8968741420E+00
 16  15   5.4487456350E+01   2.2496340663E+03   8.6256981233E+04   6.3084688028E+00   6.8970477055E+00
 16  16   5.4487456350E+01   2.2496340663E+03   8.6256981233E+04   6.3084688028E+00   6.8970477055E+00
 
+ van der Waals energy
  Evdw   =  -1.695694462181E-01 Hartree,  -3.391388924362E-01 Ry
  Evdw6 =  -7.319664637791E-02 Hartree,  -1.463932927558E-01 Ry
  Evdw8 =  -5.354030776840E-02 Hartree,  -1.070806155368E-01 Ry
  Evdw10 =  -4.283249207177E-02 Hartree,  -8.566498414355E-02 Ry
  Evdw9  =   0.000000000000E+00 Hartree,   0.000000000000E+00 Ry
  Fvdw (01) =   4.512316308047E-17  -4.493735391682E-17   4.555440647913E-17  Hartree/bohr
            =   9.024632616095E-17  -8.987470783364E-17   9.110881295826E-17  Ry/bohr
  Fvdw (02) =   3.871879436389E-07   6.247180584011E-07   7.109765560251E-08  Hartree/bohr
            =   7.743758872778E-07   1.249436116802E-06   1.421953112050E-07  Ry/bohr
  Fvdw (03) =  -3.871879436966E-07  -6.247180584013E-07  -7.109765565384E-08  Hartree/bohr
            =  -7.743758873932E-07  -1.249436116803E-06  -1.421953113077E-07  Ry/bohr
  Fvdw (04) =  -7.109738649120E-17  -1.308210376141E-17  -5.513400313476E-17  Hartree/bohr
            =  -1.421947729824E-16  -2.616420752283E-17  -1.102680062695E-16  Ry/bohr
  Fvdw (05) =   3.871879436938E-07  -6.247180584025E-07  -7.109765567709E-08  Hartree/bohr
            =   7.743758873875E-07  -1.249436116805E-06  -1.421953113542E-07  Ry/bohr
  Fvdw (06) =  -3.871879436500E-07   6.247180583944E-07   7.109765556985E-08  Hartree/bohr
            =  -7.743758873000E-07   1.249436116789E-06   1.421953111397E-07  Ry/bohr
  Fvdw (07) =  -6.181282843687E-17  -2.050063134599E-17   4.861289549113E-18  Hartree/bohr
            =  -1.236256568737E-16  -4.100126269198E-17   9.722579098226E-18  Ry/bohr
  Fvdw (08) =   6.042384002244E-17   3.664295999314E-17   1.854621845163E-17  Hartree/bohr
            =   1.208476800449E-16   7.328591998628E-17   3.709243690326E-17  Ry/bohr
  Fvdw (09) =   6.970007498004E-17  -8.819193123974E-07   3.802262032425E-04  Hartree/bohr
            =   1.394001499601E-16  -1.763838624795E-06   7.604524064850E-04  Ry/bohr
  Fvdw (10) =   5.826289925676E-17   8.819193123970E-07  -3.802262032424E-04  Hartree/bohr
            =   1.165257985135E-16   1.763838624794E-06  -7.604524064849E-04  Ry/bohr
  Fvdw (11) =   6.848261535391E-17   7.709660248770E-07   3.803017127645E-04  Hartree/bohr
            =   1.369652307078E-16   1.541932049754E-06   7.606034255290E-04  Ry/bohr
  Fvdw (12) =   9.436525051059E-17  -7.709660248148E-07  -3.803017127644E-04  Hartree/bohr
            =   1.887305010212E-16  -1.541932049630E-06  -7.606034255289E-04  Ry/bohr
  Fvdw (13) =  -6.792589700774E-17   9.389955621987E-07   3.804606562306E-04  Hartree/bohr
            =  -1.358517940155E-16   1.877991124397E-06   7.609213124612E-04  Ry/bohr
  Fvdw (14) =  -6.535125676080E-17  -9.389955622090E-07  -3.804606562307E-04  Hartree/bohr
            =  -1.307025135216E-16  -1.877991124418E-06  -7.609213124613E-04  Ry/bohr
  Fvdw (15) =  -7.374528403161E-17  -8.175152486550E-07   3.802561581167E-04  Hartree/bohr
            =  -1.474905680632E-16  -1.635030497310E-06   7.605123162334E-04  Ry/bohr
  Fvdw (16) =  -8.319244148272E-17   8.175152486569E-07  -3.802561581166E-04  Hartree/bohr
            =  -1.663848829654E-16   1.635030497314E-06  -7.605123162333E-04  Ry/bohr
  sigma_vdw (Hy/bohr**3) =  -7.045174328241E-05  -2.414389259704E-21  -1.161654146557E-20  
                            -2.414389259704E-21  -7.044938421755E-05  -2.057494372204E-11  
                            -1.161654146557E-20  -2.057494372204E-11  -6.558829654844E-05  
  sigma_vdw (Ry/bohr**3) =  -1.409034865648E-04  -4.828778519408E-21  -2.323308293113E-20  
                            -4.828778519408E-21  -1.408987684351E-04  -4.114988744409E-11  
                            -2.323308293113E-20  -4.114988744409E-11  -1.311765930969E-04  
  sigma_vdw (GPa) =  -2.072761500253E+00  -7.103377249413E-17  -3.417703919602E-16  
                     -7.103377249413E-17  -2.072692094180E+00  -6.053356415322E-07  
                     -3.417703919602E-16  -6.053356415322E-07  -1.929673981349E+00  
 

!    total energy              =   -6860.71385562 Ry
     Harris-Foulkes estimate   =   -6860.71385562 Ry
     estimated scf accuracy    <          9.4E-11 Ry

     total all-electron energy =   -311600.824197 Ry

     The total energy is the sum of the following terms:

     one-electron contribution =    -138.45604115 Ry
     hartree contribution      =     208.96948005 Ry
     xc contribution           =    -352.27739968 Ry
     ewald contribution        =    -637.11909132 Ry
     Dispersion XDM Correction =      -0.33913889 Ry
     Uncorrected (XDM) energy  =   -6860.37471673 Ry
     one-center paw contrib.   =   -5941.49166462 Ry
     smearing contrib. (-TS)   =       0.00000000 Ry

     convergence has been achieved in  16 iterations

     Forces acting on atoms (Ry/au):

     atom    1 type  1   force =     0.00000000    0.00000000    0.00000000
     atom    2 type  1   force =     0.00001901   -0.00001395    0.00000125
     atom    3 type  1   force =    -0.00001901    0.00001395   -0.00000125
     atom    4 type  1   force =     0.00000000    0.00000000    0.00000000
     atom    5 type  1   force =     0.00001901    0.00001395   -0.00000125
     atom    6 type  1   force =    -0.00001901   -0.00001395    0.00000125
     atom    7 type  1   force =     0.00000000    0.00000000    0.00000000
     atom    8 type  1   force =     0.00000000    0.00000000    0.00000000
     atom    9 type  2   force =     0.00000000    0.00003794    0.00024321
     atom   10 type  2   force =     0.00000000   -0.00003794   -0.00024321
     atom   11 type  2   force =     0.00000000   -0.00003201    0.00024101
     atom   12 type  2   force =     0.00000000    0.00003201   -0.00024101
     atom   13 type  2   force =     0.00000000   -0.00003861    0.00024066
     atom   14 type  2   force =     0.00000000    0.00003861   -0.00024066
     atom   15 type  2   force =     0.00000000    0.00003463    0.00024116
     atom   16 type  2   force =     0.00000000   -0.00003463   -0.00024116

     Total force =     0.000692     Total SCF correction =     0.000027

     Total XDM Dispersion Force =     0.002151

     XDM Dispersion forces acting on atoms:
     atom    1 type  1   force =     0.00000000    0.00000000    0.00000000
     atom    2 type  1   force =     0.00000077    0.00000125    0.00000014
     atom    3 type  1   force =    -0.00000077   -0.00000125   -0.00000014
     atom    4 type  1   force =     0.00000000    0.00000000    0.00000000
     atom    5 type  1   force =     0.00000077   -0.00000125   -0.00000014
     atom    6 type  1   force =    -0.00000077    0.00000125    0.00000014
     atom    7 type  1   force =     0.00000000    0.00000000    0.00000000
     atom    8 type  1   force =     0.00000000    0.00000000    0.00000000
     atom    9 type  2   force =     0.00000000   -0.00000176    0.00076045
     atom   10 type  2   force =     0.00000000    0.00000176   -0.00076045
     atom   11 type  2   force =     0.00000000    0.00000154    0.00076060
     atom   12 type  2   force =     0.00000000   -0.00000154   -0.00076060
     atom   13 type  2   force =     0.00000000    0.00000188    0.00076092
     atom   14 type  2   force =     0.00000000   -0.00000188   -0.00076092
     atom   15 type  2   force =     0.00000000   -0.00000164    0.00076051
     atom   16 type  2   force =     0.00000000    0.00000164   -0.00076051


     entering subroutine stress ...

          total   stress  (Ry/bohr**3)                   (kbar)     P=    0.03
   0.00000144   0.00000000   0.00000000          0.21      0.00      0.00
   0.00000000   0.00000152   0.00000000          0.00      0.22      0.00
   0.00000000   0.00000000  -0.00000244          0.00      0.00     -0.36


     Writing output data file aucl_tet_srel_xdm.save
 
     init_run     :     44.75s CPU     55.93s WALL (       2 calls)
     electrons    :  10755.77s CPU  12512.02s WALL (      12 calls)
     update_pot   :     48.45s CPU     49.16s WALL (      10 calls)
     forces       :    118.37s CPU    122.93s WALL (      12 calls)
     stress       :    405.20s CPU    412.66s WALL (      12 calls)

     Called by init_run:
     wfcinit      :     33.76s CPU     42.24s WALL (       2 calls)
     potinit      :      3.68s CPU      4.70s WALL (       2 calls)

     Called by electrons:
     c_bands      :   6719.67s CPU   8204.16s WALL (     158 calls)
     sum_band     :   3677.40s CPU   3930.01s WALL (     158 calls)
     v_of_rho     :     39.92s CPU     41.08s WALL (     169 calls)
     newd         :    132.54s CPU    137.23s WALL (     169 calls)
     mix_rho      :     33.46s CPU     37.90s WALL (     158 calls)

     Called by c_bands:
     init_us_2    :     40.34s CPU     40.34s WALL (   18468 calls)
     cegterg      :   6567.61s CPU   7711.71s WALL (    8532 calls)

     Called by *egterg:
     h_psi        :   4326.05s CPU   5194.18s WALL (   27200 calls)
     s_psi        :    349.86s CPU    350.18s WALL (   27200 calls)
     g_psi        :     29.65s CPU     29.55s WALL (   18560 calls)
     cdiaghg      :    773.33s CPU    777.06s WALL (   26498 calls)

     Called by h_psi:
     add_vuspsi   :    368.21s CPU    368.72s WALL (   27200 calls)

     General routines
     calbec       :    566.75s CPU    651.24s WALL (   37028 calls)
     fft          :     27.37s CPU     34.89s WALL (    5108 calls)
     ffts         :      0.69s CPU      0.77s WALL (     654 calls)
     fftw         :   5462.26s CPU   6471.73s WALL ( 6561304 calls)
     interpolate  :      4.60s CPU      4.82s WALL (     654 calls)
     davcio       :      0.32s CPU    353.21s WALL (   27000 calls)
 
     Parallel routines
     fft_scatter  :   1116.69s CPU   2119.26s WALL ( 6567066 calls)
 
     PAW routines
     PAW_pot      :     90.95s CPU     92.62s WALL (     169 calls)
     PAW_ddot     :     28.19s CPU     32.36s WALL (    3658 calls)
     PAW_symme    :      0.05s CPU      0.07s WALL (     317 calls)
 
     PWSCF        :     3h 9m CPU        3h39m WALL

 
   This run was terminated on:  10:15:16  23Nov2012            

=------------------------------------------------------------------------------=
   JOB DONE.
=------------------------------------------------------------------------------=
