
     Program PWSCF v.4.3.2      starts on 31Aug2012 at  6:45: 4 

     This program is part of the open-source Quantum ESPRESSO suite
     for quantum simulation of materials; please cite
         "P. Giannozzi et al., J. Phys.:Condens. Matter 21 395502 (2009);
          URL http://www.quantum-espresso.org", 
     in publications or presentations arising from this work. More details at
     http://www.quantum-espresso.org/wiki/index.php/Citing_Quantum-ESPRESSO

     Parallel version (MPI), running on    12 processors
     R & G space division:  proc/pool =   12

     Current dimensions of program PWSCF are:
     Max number of different atomic species (ntypx) = 10
     Max number of k-points (npk) =  40000
     Max angular momentum in pseudopotentials (lmaxx) =  3
     Waiting for input...
     Reading input from stdin
               file o.UPF: wavefunction(s)  2P renormalized
               file h.UPF: wavefunction(s)  1S renormalized
               file c.UPF: wavefunction(s)  2P renormalized

     Subspace diagonalization in iterative solution of the eigenvalue problem:
     a serial algorithm will be used

 
     Parallelization info
     --------------------
     sticks:   dense  smooth     PW     G-vecs:    dense   smooth      PW
     Min        1160     773    199               102983    56045    7351
     Max        1163     774    200               102984    56059    7354
     Sum       13927    9283   2393              1235805   672615   88227
 

     Title: 
     empty                                                                      


     bravais-lattice index     =            0
     lattice parameter (alat)  =       1.0000  a.u.
     unit-cell volume          =   10714.1104 (a.u.)^3
     number of atoms/cell      =          143
     number of atomic types    =            3
     number of electrons       =       376.00
     number of Kohn-Sham states=          188
     kinetic-energy cutoff     =      60.0000  Ry
     charge density cutoff     =     360.0000  Ry
     convergence threshold     =      1.0E-08
     mixing beta               =       0.7000
     number of iterations used =            8  plain     mixing
     Exchange-correlation      =  NOX  PW   PW86 PBC ( 0 417 4 0)
     EXX-fraction              =        0.00
     nstep                     =           50


     celldm(1)=   1.000000  celldm(2)=   0.000000  celldm(3)=   0.000000
     celldm(4)=   0.000000  celldm(5)=   0.000000  celldm(6)=   0.000000

     crystal axes: (cart. coord. in units of alat)
               a(1) = (  22.045970   0.013529   0.027676 )  
               a(2) = (   0.013531  22.045203   0.011854 )  
               a(3) = (   0.027682   0.011853  22.045187 )  

     reciprocal axes: (cart. coord. in units 2 pi/alat)
               b(1) = (  0.045360 -0.000028 -0.000057 )  
               b(2) = ( -0.000028  0.045361 -0.000024 )  
               b(3) = ( -0.000057 -0.000024  0.045361 )  


     PseudoPot. # 1 for  O read from file:
     ./o.UPF
     MD5 check sum: 7b405463629fa2aaa019ec68516902cf
     Pseudo is Projector augmented-wave + core cor, Zval =  6.0
     Generated using "atomic" code by A. Dal Corso  (Quantum ESPRESSO distribution)
     Shape of augmentation charge: BESSEL
     Using radial grid of 1095 points,  4 beta functions with: 
                l(1) =   0
                l(2) =   0
                l(3) =   1
                l(4) =   1
     Q(r) pseudized with 0 coefficients 


     PseudoPot. # 2 for  H read from file:
     ./h.UPF
     MD5 check sum: 465503140a8a8e79e3a70d3488897feb
     Pseudo is Projector augmented-wave, Zval =  1.0
     Generated using "atomic" code by A. Dal Corso  (Quantum ESPRESSO distribution)
     Shape of augmentation charge: PSQ
     Using radial grid of  929 points,  2 beta functions with: 
                l(1) =   0
                l(2) =   0
     Q(r) pseudized with 0 coefficients 


     PseudoPot. # 3 for  C read from file:
     ./c.UPF
     MD5 check sum: 59d3a4af416b94ce846c69cefa103580
     Pseudo is Projector augmented-wave + core cor, Zval =  4.0
     Generated using "atomic" code by A. Dal Corso  (Quantum ESPRESSO distribution)
     Shape of augmentation charge: BESSEL
     Using radial grid of 1073 points,  4 beta functions with: 
                l(1) =   0
                l(2) =   0
                l(3) =   1
                l(4) =   1
     Q(r) pseudized with 0 coefficients 


     atomic species   valence    mass     pseudopotential
        o              6.00    15.99940      O( 1.00)
        h              1.00     1.00794      H( 1.00)
        c              4.00    12.01070      C( 1.00)

     No symmetry found

   Cartesian axes

     site n.     atom                  positions (alat units)
         1           o   tau(   1) = (   8.4730775  22.0571644   6.8045478  )
         2           o   tau(   2) = (  13.6017742   0.0754902   6.8293220  )
         3           o   tau(   3) = (  13.6074662  22.0366999  15.2964680  )
         4           o   tau(   4) = (   8.4479358   0.0394421  15.2776959  )
         5           o   tau(   5) = (  16.5387546   0.0444761  11.0551139  )
         6           o   tau(   6) = (   5.5206362   0.0152849  11.0256199  )
         7           o   tau(   7) = (  11.0310110  10.9922964   5.5254303  )
         8           o   tau(   8) = (  11.0710251  11.0207873  16.5640040  )
         9           o   tau(   9) = (  15.2761129  11.0080429   8.4557668  )
        10           o   tau(  10) = (   6.8057869  11.0262339   8.4682358  )
        11           o   tau(  11) = (   6.8435865  10.9868931  13.6123162  )
        12           o   tau(  12) = (  15.2943286  11.0588830  13.6073690  )
        13           o   tau(  13) = (  15.1344483   4.0709102   4.0272161  )
        14           o   tau(  14) = (   6.9959533   4.0468149   4.0422458  )
        15           o   tau(  15) = (   6.9749935   4.0786231  18.0316605  )
        16           o   tau(  16) = (  15.0688854   4.0515997  18.0104422  )
        17           o   tau(  17) = (   2.5885560   4.2419094  10.9700406  )
        18           o   tau(  18) = (  19.4899730   4.2574290  11.0357979  )
        19           o   tau(  19) = (   2.5911151  17.8465317  11.0819685  )
        20           o   tau(  20) = (  19.4960695  17.8816489  11.0756444  )
        21           o   tau(  21) = (  15.0689267  18.0277455   4.1239984  )
        22           o   tau(  22) = (   7.0077124  17.9928578   4.0812906  )
        23           o   tau(  23) = (   7.0182098  18.0244354  18.0580138  )
        24           o   tau(  24) = (  15.0784872  18.0007133  18.0666878  )
        25           o   tau(  25) = (  18.0174845  15.1004921  15.1010949  )
        26           o   tau(  26) = (   4.1095418  15.0660843  15.1016762  )
        27           o   tau(  27) = (   4.0459021  15.0900325   7.0385672  )
        28           o   tau(  28) = (  18.0194918  15.0921854   7.0625622  )
        29           o   tau(  29) = (  11.0372480  15.2312650  19.5193893  )
        30           o   tau(  30) = (  11.0627641  15.2203141   2.6126108  )
        31           o   tau(  31) = (  11.0302651   6.8056685  19.4945215  )
        32           o   tau(  32) = (  11.0589572   6.7785648   2.5830745  )
        33           o   tau(  33) = (  18.0077378   7.0006824  15.0822650  )
        34           o   tau(  34) = (   4.0480171   6.9582481  15.0439377  )
        35           o   tau(  35) = (   4.0565998   7.0017432   6.9414679  )
        36           o   tau(  36) = (  18.0785134   7.0139754   6.9659491  )
        37           o   tau(  37) = (  17.8801509   2.5719080  21.9994881  )
        38           o   tau(  38) = (   4.2052393   2.5653236   0.0272234  )
        39           o   tau(  39) = (  22.0523789   8.4682219  17.8029145  )
        40           o   tau(  40) = (   0.0529321   8.4990388   4.1518806  )
        41           o   tau(  41) = (   0.0289069  13.6103568  17.8329689  )
        42           o   tau(  42) = (  22.0538138  13.6407783   4.2908473  )
        43           o   tau(  43) = (   4.2144406  19.4611250   0.0521414  )
        44           o   tau(  44) = (  17.8121058  19.4598302   0.0621748  )
        45           o   tau(  45) = (   0.0291761   5.5323175  21.9987952  )
        46           o   tau(  46) = (  22.0405174  16.5240486   0.0520838  )
        47           h   tau(  47) = (  10.3505651  22.0565514   6.9788905  )
        48           h   tau(  48) = (   6.6218282   0.0563239   9.4967066  )
        49           h   tau(  49) = (   7.6150490   2.5671503   5.0450678  )
        50           h   tau(  50) = (   8.0251541  20.5153756   5.8061143  )
        51           h   tau(  51) = (  14.6220825   0.0756542   8.4160095  )
        52           h   tau(  52) = (  14.1911530   1.5671781   5.8298555  )
        53           h   tau(  53) = (  14.5348525  19.5133255   5.1634013  )
        54           h   tau(  54) = (  11.7291289  22.0272451  15.1316266  )
        55           h   tau(  55) = (  15.4560882  22.0139122  12.5986817  )
        56           h   tau(  56) = (  14.4466115   2.5760881  17.0060814  )
        57           h   tau(  57) = (  14.0577225  20.5288121  16.3417554  )
        58           h   tau(  58) = (   7.4304455   0.0659932  13.6894975  )
        59           h   tau(  59) = (   7.9041406   1.5597027  16.2623153  )
        60           h   tau(  60) = (   7.5327500  19.5538348  17.0742043  )
        61           h   tau(  61) = (  18.4541505   2.6803010  11.0752390  )
        62           h   tau(  62) = (  17.6567756  20.5604916  11.1033961  )
        63           h   tau(  63) = (   4.4208231   1.5458912  10.9496607  )
        64           h   tau(  64) = (   3.6185660  19.4300039  11.0625473  )
        65           h   tau(  65) = (  13.6904544  10.9570864   7.4359756  )
        66           h   tau(  66) = (   9.4993393  10.9508486   6.6226702  )
        67           h   tau(  67) = (  11.0649817  13.6306095   3.6308246  )
        68           h   tau(  68) = (  10.9794376   9.4600758   4.4268023  )
        69           h   tau(  69) = (   8.4275547  10.9714805  14.6351505  )
        70           h   tau(  70) = (  12.5995338  11.0965734  15.4638295  )
        71           h   tau(  71) = (  11.0966691  12.5530473  17.6630776  )
        72           h   tau(  72) = (  11.0484197   8.3919979  18.4719152  )
        73           h   tau(  73) = (  15.1218811  11.0685190  11.7309924  )
        74           h   tau(  74) = (  17.0245421  13.5658883   7.5703491  )
        75           h   tau(  75) = (  16.2917022   9.5073969   7.9178065  )
        76           h   tau(  76) = (   6.9787536  11.0286751  10.3453993  )
        77           h   tau(  77) = (   5.7819596  12.5497893   8.0236615  )
        78           h   tau(  78) = (   5.0916834   8.4709206   7.5268277  )
        79           h   tau(  79) = (   5.1510712  13.5849661  14.5629044  )
        80           h   tau(  80) = (   5.8454616   9.4752020  14.1481917  )
        81           h   tau(  81) = (  16.3023583  12.5923176  14.0639451  )
        82           h   tau(  82) = (  16.9769060   8.4831126  14.5189071  )
        83           h   tau(  83) = (  12.6108445   5.7970037   3.0347268  )
        84           h   tau(  84) = (  16.2678366   5.1563231   5.0827026  )
        85           h   tau(  85) = (  16.1723684   3.5105881   2.5501849  )
        86           h   tau(  86) = (   8.5282669   5.0017439   3.4784728  )
        87           h   tau(  87) = (   5.2012885   5.9307747   5.8811758  )
        88           h   tau(  88) = (   5.2363596   3.0424996   1.5366210  )
        89           h   tau(  89) = (   9.4843487   5.8560607  18.9629874  )
        90           h   tau(  90) = (   5.8285236   5.1308158  16.9547036  )
        91           h   tau(  91) = (   5.9408606   3.4979187  19.5035148  )
        92           h   tau(  92) = (  13.5427403   5.0268829  18.5565372  )
        93           h   tau(  93) = (  16.8692363   5.9355241  16.1530713  )
        94           h   tau(  94) = (  16.8542728   3.1082355  20.5051448  )
        95           h   tau(  95) = (   0.7115893   4.0785969  10.9497101  )
        96           h   tau(  96) = (   3.4372792   5.9655951  13.5550287  )
        97           h   tau(  97) = (   3.0574482   5.2671151   9.4521887  )
        98           h   tau(  98) = (  18.9446570   5.2585139  12.5446056  )
        99           h   tau(  99) = (  18.6750195   5.9900938   8.4380212  )
       100           h   tau( 100) = (  21.3753535  18.0338680  11.0751324  )
       101           h   tau( 101) = (   3.1721772  16.8610985  12.5859277  )
       102           h   tau( 102) = (   3.4339508  16.1043313   8.5128882  )
       103           h   tau( 103) = (  18.5757345  16.1619452  13.6404131  )
       104           h   tau( 104) = (  19.0394615  16.8390470   9.5680830  )
       105           h   tau( 105) = (  16.1694967  16.9689264   5.2388821  )
       106           h   tau( 106) = (  12.5601383  16.2158836   3.1919778  )
       107           h   tau( 107) = (  16.8210482  19.0256086   1.6123911  )
       108           h   tau( 108) = (   5.9335124  16.8972983   5.1866995  )
       109           h   tau( 109) = (   8.4756215  16.9295859   3.5455468  )
       110           h   tau( 110) = (   5.2064891  18.8941336   1.5573177  )
       111           h   tau( 111) = (   5.2189418  16.1347048  16.1981381  )
       112           h   tau( 112) = (   9.5305613  16.2778833  19.0669210  )
       113           h   tau( 113) = (   5.9866196  18.6256824  19.5246656  )
       114           h   tau( 114) = (  16.9293593  16.2052245  16.1843681  )
       115           h   tau( 115) = (  13.6054846  16.9899885  18.6862988  )
       116           h   tau( 116) = (  16.0468607  18.5560923  19.5929070  )
       117           h   tau( 117) = (  20.5909193  14.1673551  16.8240928  )
       118           h   tau( 118) = (   1.5475578  14.1221365  16.8307227  )
       119           h   tau( 119) = (   2.5299780  14.5529829   6.0499598  )
       120           h   tau( 120) = (  19.4719636  14.4727538   6.0256568  )
       121           h   tau( 121) = (  11.0334881  15.0731717  21.3986452  )
       122           h   tau( 122) = (  11.0646567   6.9468675   0.7048278  )
       123           h   tau( 123) = (  20.5087548   7.9953308  16.8167752  )
       124           h   tau( 124) = (   2.5153070   7.5295048  15.9935832  )
       125           h   tau( 125) = (   1.5870882   7.9704307   5.1225618  )
       126           h   tau( 126) = (  19.6055525   7.5462477   5.9857719  )
       127           h   tau( 127) = (  17.9895736  21.3358523   0.0488011  )
       128           h   tau( 128) = (  19.4543553   3.6121848  21.9505364  )
       129           h   tau( 129) = (   4.0408489   0.6878377   0.0711628  )
       130           h   tau( 130) = (   1.5592308   4.4300546  21.9709379  )
       131           h   tau( 131) = (  22.0351624  10.3516556  17.9319348  )
       132           h   tau( 132) = (   0.0920047   6.6261203  20.4636007  )
       133           h   tau( 133) = (   0.0299327  11.7677917   3.9538147  )
       134           h   tau( 134) = (   0.0626717   7.4610066   2.5758375  )
       135           h   tau( 135) = (  22.0225382  15.4873298  20.5262683  )
       136           h   tau( 136) = (  22.0332832  14.5443444   2.6339959  )
       137           h   tau( 137) = (   2.6289662  18.4378729   0.0562958  )
       138           h   tau( 138) = (  20.5365528  17.6357476  22.0661365  )
       139           c   tau( 139) = (   0.0069204   0.0029633   5.5112968  )
       140           h   tau( 140) = (   1.9616325   0.6950841   5.5141217  )
       141           h   tau( 141) = (  -0.9719238   0.6923823   3.8180267  )
       142           h   tau( 142) = (  -0.9676735   0.6942022   7.2028567  )
       143           h   tau( 143) = (   0.0056547  -2.0698087   5.5101823  )

     number of k points=     4
                       cart. coord. in units 2pi/alat
        k(    1) = (   0.0113188   0.0113273   0.0113200), wk =   0.5000000
        k(    2) = (   0.0113472   0.0113395  -0.0113607), wk =   0.5000000
        k(    3) = (   0.0113327  -0.0113534   0.0113322), wk =   0.5000000
        k(    4) = (   0.0113611  -0.0113412  -0.0113485), wk =   0.5000000

     Dense  grid:  1235805 G-vectors     FFT dimensions: ( 135, 135, 135)

     Smooth grid:   672615 G-vectors     FFT dimensions: ( 120, 120, 120)

     Largest allocated arrays     est. size (Mb)     dimensions
        Kohn-Sham Wavefunctions        20.18 Mb     (   7036,  188)
        NL pseudopotentials            60.98 Mb     (   7036,  568)
        Each V/rho on FFT grid          3.34 Mb     ( 218700)
        Each G-vector array             0.79 Mb     ( 102984)
        G-vector shells                 0.79 Mb     ( 102984)
     Largest temporary arrays     est. size (Mb)     dimensions
        Auxiliary wavefunctions        80.74 Mb     (   7036,  752)
        Each subspace H/S matrix        8.63 Mb     ( 752, 752)
        Each <psi_i|beta_j> matrix      1.63 Mb     (    568,  188)
        Arrays for rho mixing          26.70 Mb     ( 218700,   8)

     Check: negative/imaginary core charge=   -0.000004    0.000000

     Initial potential from superposition of free atoms

     starting charge  375.99906, renormalised to  376.00000
     Starting wfc are  284 atomic wfcs
     Checking if some PAW data can be deallocated... 

     total cpu time spent up to now is       69.7 secs

     per-process dynamical memory:   203.0 Mb

     Self-consistent Calculation

     iteration #  1     ecut=    60.00 Ry     beta=0.70
     Davidson diagonalization with overlap
     ethr =  1.00E-02,  avg # of iterations =  3.0

     negative rho (up, down):  0.146E-05 0.000E+00

     total cpu time spent up to now is      212.4 secs

     total energy              =   -2055.78336330 Ry
     Harris-Foulkes estimate   =   -2067.71236059 Ry
     estimated scf accuracy    <     515.34762671 Ry

     iteration #  2     ecut=    60.00 Ry     beta=0.70
     Davidson diagonalization with overlap
     ethr =  1.00E-02,  avg # of iterations =  3.0

     negative rho (up, down):  0.313E-05 0.000E+00

     total cpu time spent up to now is      365.3 secs

     total energy              =   -2056.19576961 Ry
     Harris-Foulkes estimate   =   -2066.60345668 Ry
     estimated scf accuracy    <     151.65062804 Ry

     iteration #  3     ecut=    60.00 Ry     beta=0.70
     Davidson diagonalization with overlap
     ethr =  1.00E-02,  avg # of iterations =  3.0

     negative rho (up, down):  0.466E-04 0.000E+00

     total cpu time spent up to now is      514.6 secs

     total energy              =   -2055.90721517 Ry
     Harris-Foulkes estimate   =   -2074.78711318 Ry
     estimated scf accuracy    <      97.51709293 Ry

     iteration #  4     ecut=    60.00 Ry     beta=0.70
     Davidson diagonalization with overlap
     ethr =  1.00E-02,  avg # of iterations =  2.0

     negative rho (up, down):  0.327E-04 0.000E+00

     total cpu time spent up to now is      657.4 secs

     total energy              =   -2062.64545270 Ry
     Harris-Foulkes estimate   =   -2062.72367784 Ry
     estimated scf accuracy    <       0.32504926 Ry

     iteration #  5     ecut=    60.00 Ry     beta=0.70
     Davidson diagonalization with overlap
     ethr =  8.64E-05,  avg # of iterations =  3.0

     negative rho (up, down):  0.190E-04 0.000E+00

     total cpu time spent up to now is      810.9 secs

     total energy              =   -2062.77926804 Ry
     Harris-Foulkes estimate   =   -2062.78332185 Ry
     estimated scf accuracy    <       0.03855790 Ry

     iteration #  6     ecut=    60.00 Ry     beta=0.70
     Davidson diagonalization with overlap
     ethr =  1.03E-05,  avg # of iterations =  2.0

     negative rho (up, down):  0.108E-04 0.000E+00

     total cpu time spent up to now is      927.4 secs

     total energy              =   -2062.77662823 Ry
     Harris-Foulkes estimate   =   -2062.78058583 Ry
     estimated scf accuracy    <       0.02359213 Ry

     iteration #  7     ecut=    60.00 Ry     beta=0.70
     Davidson diagonalization with overlap
     ethr =  6.27E-06,  avg # of iterations =  3.8

     negative rho (up, down):  0.897E-05 0.000E+00

     total cpu time spent up to now is     1047.6 secs

     total energy              =   -2062.77731209 Ry
     Harris-Foulkes estimate   =   -2062.77811404 Ry
     estimated scf accuracy    <       0.00436041 Ry

     iteration #  8     ecut=    60.00 Ry     beta=0.70
     Davidson diagonalization with overlap
     ethr =  1.16E-06,  avg # of iterations =  2.0

     negative rho (up, down):  0.669E-05 0.000E+00

     total cpu time spent up to now is     1161.0 secs

     total energy              =   -2062.77681427 Ry
     Harris-Foulkes estimate   =   -2062.77740964 Ry
     estimated scf accuracy    <       0.00192335 Ry

     iteration #  9     ecut=    60.00 Ry     beta=0.70
     Davidson diagonalization with overlap
     ethr =  5.12E-07,  avg # of iterations =  4.0

     negative rho (up, down):  0.634E-05 0.000E+00

     total cpu time spent up to now is     1289.2 secs

     total energy              =   -2062.77710640 Ry
     Harris-Foulkes estimate   =   -2062.77711564 Ry
     estimated scf accuracy    <       0.00006407 Ry

     iteration # 10     ecut=    60.00 Ry     beta=0.70
     Davidson diagonalization with overlap
     ethr =  1.70E-08,  avg # of iterations =  4.0

     negative rho (up, down):  0.612E-05 0.000E+00

     total cpu time spent up to now is     1427.3 secs

     total energy              =   -2062.77711434 Ry
     Harris-Foulkes estimate   =   -2062.77711694 Ry
     estimated scf accuracy    <       0.00003359 Ry

     iteration # 11     ecut=    60.00 Ry     beta=0.70
     Davidson diagonalization with overlap
     ethr =  8.93E-09,  avg # of iterations =  1.0

     negative rho (up, down):  0.608E-05 0.000E+00

     total cpu time spent up to now is     1539.3 secs

     total energy              =   -2062.77711248 Ry
     Harris-Foulkes estimate   =   -2062.77711500 Ry
     estimated scf accuracy    <       0.00001877 Ry

     iteration # 12     ecut=    60.00 Ry     beta=0.70
     Davidson diagonalization with overlap
     ethr =  4.99E-09,  avg # of iterations =  4.0

     negative rho (up, down):  0.605E-05 0.000E+00

     total cpu time spent up to now is     1659.5 secs

     total energy              =   -2062.77711250 Ry
     Harris-Foulkes estimate   =   -2062.77711325 Ry
     estimated scf accuracy    <       0.00000413 Ry

     iteration # 13     ecut=    60.00 Ry     beta=0.70
     Davidson diagonalization with overlap
     ethr =  1.10E-09,  avg # of iterations =  2.0

     negative rho (up, down):  0.604E-05 0.000E+00

     total cpu time spent up to now is     1772.9 secs

     total energy              =   -2062.77711235 Ry
     Harris-Foulkes estimate   =   -2062.77711259 Ry
     estimated scf accuracy    <       0.00000203 Ry

     iteration # 14     ecut=    60.00 Ry     beta=0.70
     Davidson diagonalization with overlap
     ethr =  5.39E-10,  avg # of iterations =  4.0

     negative rho (up, down):  0.603E-05 0.000E+00

     total cpu time spent up to now is     1896.4 secs

     total energy              =   -2062.77711250 Ry
     Harris-Foulkes estimate   =   -2062.77711261 Ry
     estimated scf accuracy    <       0.00000046 Ry

     iteration # 15     ecut=    60.00 Ry     beta=0.70
     Davidson diagonalization with overlap
     ethr =  1.22E-10,  avg # of iterations =  3.5

     negative rho (up, down):  0.603E-05 0.000E+00

     total cpu time spent up to now is     2010.9 secs

     End of self-consistent calculation

          k = 0.0113 0.0113 0.0113 ( 84070 PWs)   bands (ev):

   -22.0818 -21.9792 -21.9611 -21.9585 -21.8693 -21.8580 -21.8557 -21.7814
   -21.7243 -21.7229 -21.7206 -21.6644 -21.6616 -21.6112 -21.6088 -21.5922
   -21.5847 -21.5227 -21.5158 -21.4729 -21.4549 -21.4502 -21.3933 -21.3895
   -21.3868 -21.3470 -21.3405 -21.3275 -21.2513 -21.2444 -21.0852 -21.0711
   -20.9685 -20.9619 -20.9227 -20.8729 -20.8639 -20.8485 -20.8458 -20.8376
   -20.8086 -20.8024 -20.7958 -20.7885 -20.7766 -20.7635 -13.2516  -9.6796
    -9.6280  -9.6173  -9.6015  -9.5953  -9.5860  -9.5792  -9.5586  -9.5477
    -9.5319  -9.5184  -9.5012  -9.4894  -9.4840  -9.4756  -9.4629  -9.4582
    -9.4539  -9.4521  -9.4327  -9.4303  -9.4278  -9.4160  -9.4125  -9.4073
    -9.4022  -9.3989  -9.3896  -9.3833  -9.3794  -9.3695  -9.3634  -9.3544
    -9.3487  -9.3405  -9.3310  -9.3258  -9.3152  -9.3012  -9.2935  -9.2843
    -9.2777  -9.2715  -9.2627  -9.2575  -9.2380  -7.3515  -7.2908  -7.2459
    -7.1822  -7.1640  -7.0968  -7.0820  -7.0671  -7.0294  -6.9743  -6.9305
    -6.9142  -6.8899  -6.8413  -6.6430  -6.6178  -6.3192  -6.2366  -6.1647
    -6.1152  -6.0868  -6.0075  -5.9663  -5.9282  -5.8912  -5.8606  -5.7907
    -5.7694  -5.7508  -5.7192  -5.6818  -5.6799  -5.6220  -5.5677  -5.5418
    -5.5054  -5.4835  -5.4419  -5.3790  -5.3270  -5.2754  -5.2102  -5.0960
    -5.0680  -5.0185  -4.8710  -4.8533  -4.8106  -4.5574  -4.0714  -4.0613
    -4.0505  -4.0332  -4.0128  -4.0050  -3.9904  -3.9821  -3.9669  -3.9567
    -3.9384  -3.9252  -3.9146  -3.9035  -3.8934  -3.8827  -3.8695  -3.8554
    -3.8474  -3.8327  -3.8247  -3.8109  -3.8012  -3.7895  -3.7806  -3.7714
    -3.7634  -3.7525  -3.7482  -3.7390  -3.7324  -3.7194  -3.7055  -3.7015
    -3.6946  -3.6841  -3.6753  -3.6673  -3.6584  -3.6519  -3.6431  -3.6298
    -3.6162  -3.6094  -3.6043  -3.5772

          k = 0.0113 0.0113-0.0114 ( 84070 PWs)   bands (ev):

   -22.0814 -21.9834 -21.9613 -21.9535 -21.8744 -21.8567 -21.8506 -21.7847
   -21.7251 -21.7222 -21.7190 -21.6669 -21.6602 -21.6092 -21.6063 -21.5942
   -21.5889 -21.5192 -21.5085 -21.4749 -21.4624 -21.4502 -21.3958 -21.3898
   -21.3862 -21.3490 -21.3416 -21.3224 -21.2478 -21.2430 -21.0860 -21.0773
   -20.9692 -20.9564 -20.9210 -20.8760 -20.8623 -20.8496 -20.8448 -20.8385
   -20.8113 -20.8027 -20.7937 -20.7855 -20.7796 -20.7629 -13.2516  -9.6797
    -9.6242  -9.6163  -9.6063  -9.5995  -9.5898  -9.5705  -9.5587  -9.5491
    -9.5337  -9.5131  -9.5011  -9.4895  -9.4850  -9.4801  -9.4663  -9.4549
    -9.4502  -9.4428  -9.4394  -9.4342  -9.4257  -9.4188  -9.4119  -9.4084
    -9.4018  -9.3959  -9.3898  -9.3819  -9.3765  -9.3723  -9.3670  -9.3572
    -9.3483  -9.3413  -9.3309  -9.3253  -9.3136  -9.3003  -9.2917  -9.2847
    -9.2774  -9.2727  -9.2651  -9.2557  -9.2376  -7.3521  -7.2921  -7.2386
    -7.1825  -7.1540  -7.1163  -7.0858  -7.0719  -7.0265  -6.9800  -6.9438
    -6.9031  -6.8773  -6.8162  -6.6593  -6.6230  -6.3192  -6.2592  -6.1445
    -6.1028  -6.0827  -5.9993  -5.9721  -5.9343  -5.8939  -5.8754  -5.7886
    -5.7843  -5.7424  -5.7110  -5.6844  -5.6601  -5.6127  -5.5937  -5.5656
    -5.5067  -5.4554  -5.4082  -5.3885  -5.3325  -5.2978  -5.2092  -5.0966
    -5.0591  -5.0240  -4.8831  -4.8427  -4.8067  -4.5582  -4.0769  -4.0579
    -4.0503  -4.0358  -4.0125  -4.0042  -3.9883  -3.9692  -3.9621  -3.9558
    -3.9420  -3.9332  -3.9202  -3.9094  -3.8982  -3.8864  -3.8706  -3.8520
    -3.8419  -3.8273  -3.8183  -3.8075  -3.7945  -3.7905  -3.7859  -3.7798
    -3.7702  -3.7542  -3.7500  -3.7405  -3.7189  -3.7136  -3.7113  -3.7020
    -3.6915  -3.6860  -3.6744  -3.6712  -3.6632  -3.6518  -3.6412  -3.6242
    -3.6212  -3.6078  -3.6037  -3.5776

          k = 0.0113-0.0114 0.0113 ( 84051 PWs)   bands (ev):

   -22.0815 -21.9838 -21.9606 -21.9530 -21.8756 -21.8559 -21.8514 -21.7855
   -21.7245 -21.7209 -21.7195 -21.6678 -21.6594 -21.6093 -21.6064 -21.5942
   -21.5880 -21.5157 -21.5144 -21.4748 -21.4607 -21.4506 -21.3936 -21.3905
   -21.3866 -21.3488 -21.3431 -21.3242 -21.2490 -21.2388 -21.0846 -21.0808
   -20.9651 -20.9594 -20.9208 -20.8761 -20.8604 -20.8513 -20.8458 -20.8378
   -20.8124 -20.7988 -20.7979 -20.7855 -20.7778 -20.7633 -13.2516  -9.6795
    -9.6295  -9.6193  -9.6025  -9.5946  -9.5833  -9.5760  -9.5590  -9.5441
    -9.5332  -9.5150  -9.5096  -9.4936  -9.4768  -9.4766  -9.4669  -9.4568
    -9.4518  -9.4488  -9.4379  -9.4325  -9.4245  -9.4196  -9.4150  -9.4102
    -9.3977  -9.3961  -9.3898  -9.3817  -9.3787  -9.3700  -9.3651  -9.3567
    -9.3475  -9.3390  -9.3267  -9.3255  -9.3144  -9.3000  -9.2935  -9.2896
    -9.2784  -9.2720  -9.2653  -9.2540  -9.2374  -7.3580  -7.2778  -7.2368
    -7.1877  -7.1663  -7.1209  -7.0912  -7.0511  -7.0435  -6.9636  -6.9404
    -6.9026  -6.8627  -6.8267  -6.6716  -6.6374  -6.2800  -6.2524  -6.1453
    -6.1375  -6.0779  -6.0122  -5.9775  -5.9237  -5.8894  -5.8666  -5.8046
    -5.7698  -5.7289  -5.7112  -5.6937  -5.6709  -5.6267  -5.5979  -5.5530
    -5.5101  -5.4453  -5.4113  -5.3877  -5.3287  -5.2840  -5.2088  -5.1041
    -5.0600  -5.0384  -4.8793  -4.8420  -4.7983  -4.5627  -4.0676  -4.0617
    -4.0492  -4.0372  -4.0188  -3.9993  -3.9873  -3.9848  -3.9620  -3.9544
    -3.9488  -3.9231  -3.9154  -3.9092  -3.8868  -3.8786  -3.8658  -3.8542
    -3.8458  -3.8361  -3.8292  -3.8123  -3.8046  -3.7922  -3.7843  -3.7672
    -3.7625  -3.7490  -3.7448  -3.7376  -3.7304  -3.7198  -3.7127  -3.7023
    -3.6946  -3.6837  -3.6760  -3.6666  -3.6583  -3.6510  -3.6376  -3.6347
    -3.6194  -3.6081  -3.5998  -3.5792

          k = 0.0114-0.0113-0.0113 ( 84069 PWs)   bands (ev):

   -22.0813 -21.9859 -21.9590 -21.9523 -21.8783 -21.8547 -21.8492 -21.7864
   -21.7257 -21.7222 -21.7176 -21.6667 -21.6595 -21.6086 -21.6045 -21.5972
   -21.5905 -21.5141 -21.5080 -21.4762 -21.4624 -21.4547 -21.3936 -21.3907
   -21.3887 -21.3495 -21.3420 -21.3202 -21.2482 -21.2379 -21.0914 -21.0794
   -20.9628 -20.9569 -20.9212 -20.8758 -20.8593 -20.8514 -20.8453 -20.8416
   -20.8154 -20.7996 -20.7934 -20.7861 -20.7767 -20.7641 -13.2516  -9.6804
    -9.6273  -9.6193  -9.6027  -9.5974  -9.5819  -9.5684  -9.5620  -9.5510
    -9.5315  -9.5172  -9.5077  -9.4911  -9.4827  -9.4744  -9.4664  -9.4580
    -9.4529  -9.4422  -9.4376  -9.4314  -9.4264  -9.4175  -9.4142  -9.4082
    -9.4027  -9.3990  -9.3895  -9.3844  -9.3776  -9.3694  -9.3605  -9.3575
    -9.3500  -9.3364  -9.3313  -9.3231  -9.3178  -9.3024  -9.2931  -9.2877
    -9.2734  -9.2714  -9.2650  -9.2555  -9.2386  -7.3670  -7.2612  -7.2265
    -7.2016  -7.1611  -7.1279  -7.0994  -7.0587  -7.0355  -6.9768  -6.9417
    -6.8874  -6.8483  -6.8291  -6.6770  -6.6242  -6.3316  -6.2647  -6.1249
    -6.1140  -6.0746  -5.9957  -5.9518  -5.9269  -5.9016  -5.8680  -5.8398
    -5.7658  -5.7301  -5.7203  -5.7037  -5.6504  -5.6127  -5.5707  -5.5446
    -5.5213  -5.4566  -5.4301  -5.3964  -5.3465  -5.2867  -5.2032  -5.0942
    -5.0504  -5.0076  -4.8880  -4.8585  -4.8068  -4.5565  -4.0697  -4.0606
    -4.0473  -4.0361  -4.0183  -4.0043  -3.9868  -3.9812  -3.9629  -3.9556
    -3.9395  -3.9326  -3.9233  -3.9049  -3.8922  -3.8797  -3.8583  -3.8556
    -3.8423  -3.8358  -3.8221  -3.8115  -3.8050  -3.7896  -3.7832  -3.7746
    -3.7632  -3.7544  -3.7483  -3.7370  -3.7270  -3.7195  -3.7089  -3.7031
    -3.6911  -3.6849  -3.6790  -3.6683  -3.6597  -3.6489  -3.6389  -3.6314
    -3.6167  -3.6094  -3.6039  -3.5775
 TIME (initial):        0.0
* Atoms contributing density to the main cell
  Number of atoms:   49049
 
 TIME (set up the environment):        0.1
 DOCALC: T F T T
 ESAVE:       0.000000000000       0.000000000000       0.000000000000
* XDM: using PAW all-electron density reconstruction? T
 TIME (promolecular grid):       94.1
 TIME (calculation of b grid):       94.7
 TIME (calculation of volumes and moments):      688.8
 
+ Volume and moments
# All results in atomic units.
# i              V                  Vfree                 M1                  M2                  M3
  1        20.3410837984        23.7788846669         4.3802571399        32.4397333537       309.8743613723
  2        20.3464940516        23.7788846669         4.3872080011        32.4424584048       308.5977209578
  3        20.3299496080        23.7788846669         4.3813518581        32.3883087432       307.1942325610
  4        20.3502994728        23.7788846669         4.3877467001        32.4265708580       307.1862633242
  5        20.3293915272        23.7788846669         4.3854880859        32.4904802123       311.1393124636
  6        20.3203395656        23.7788846669         4.3869405962        32.4748838491       310.5947035883
  7        20.3224424038        23.7788846669         4.3875616588        32.4445677197       307.8230560918
  8        20.3146629552        23.7788846669         4.3868475538        32.4272603410       307.4033612987
  9        20.3503646048        23.7788846669         4.3886768507        32.4487205433       307.5990612011
 10        20.3315301795        23.7788846669         4.3815017682        32.4009006541       307.5633354102
 11        20.3556058256        23.7788846669         4.3914965976        32.4695873117       307.6050369425
 12        20.3349292064        23.7788846669         4.3811526442        32.4011157312       307.4763831168
 13        20.3121230688        23.7788846669         4.3616803745        32.2580014738       309.2225271818
 14        20.3148082074        23.7788846669         4.3559526858        32.2592724607       309.9884960795
 15        20.3224043842        23.7788846669         4.3617468535        32.2353305438       307.0096654221
 16        20.3035466600        23.7788846669         4.3572072688        32.2148092459       307.0661060349
 17        20.3309856261        23.7788846669         4.3745627315        32.4104519012       311.3179583713
 18        20.3776800281        23.7788846669         4.3851734367        32.5312299064       312.6250383246
 19        20.3517925306        23.7788846669         4.3815585478        32.4758933349       311.7349186632
 20        20.3300658123        23.7788846669         4.3747660985        32.4260160153       311.6777973811
 21        20.3158074886        23.7788846669         4.3669508712        32.2953212004       309.2347346244
 22        20.3279587986        23.7788846669         4.3681855856        32.3400057839       310.3907499864
 23        20.3092718934        23.7788846669         4.3616891562        32.2429079391       307.1112554685
 24        20.3042503858        23.7788846669         4.3592606571        32.2257900357       307.0386839800
 25        20.3248186379        23.7788846669         4.3657930453        32.2614305164       307.0736956015
 26        20.3286171941        23.7788846669         4.3707566151        32.3078865952       307.5305141293
 27        20.3166977250        23.7788846669         4.3625932737        32.3088219737       310.4863383088
 28        20.3112813533        23.7788846669         4.3598072955        32.2785406832       309.9577917179
 29        20.3347924143        23.7788846669         4.3819738504        32.4067755284       307.4932802979
 30        20.3582103324        23.7788846669         4.3893664869        32.4647607420       307.9496155237
 31        20.3498530913        23.7788846669         4.3818713471        32.4020089571       307.3139707353
 32        20.3348678920        23.7788846669         4.3789773974        32.3762363978       307.1892335221
 33        20.3177909047        23.7788846669         4.3610157994        32.2456893564       307.3804228924
 34        20.3052640851        23.7788846669         4.3565564981        32.2119266647       307.0273172486
 35        20.3276858328        23.7788846669         4.3613151305        32.2816083421       309.6994554018
 36        20.3011988262        23.7788846669         4.3562791422        32.2313426973       309.1465033673
 37        20.3849024535        23.7788846669         4.3875279682        32.5474649196       312.6386751010
 38        20.3218561838        23.7788846669         4.3729192378        32.3940009980       311.1292087715
 39        20.3408582821        23.7788846669         4.3785480907        32.3815881045       307.2400256857
 40        20.3514829514        23.7788846669         4.3859607951        32.4336690153       308.5743105370
 41        20.3727989045        23.7788846669         4.3964147392        32.4817679675       307.3074437836
 42        20.3058333563        23.7788846669         4.3664405291        32.3555145608       309.8717315325
 43        20.3401022064        23.7788846669         4.3814239704        32.4457607360       311.1727448850
 44        20.3307925102        23.7788846669         4.3763103530        32.4358543278       311.5823105239
 45        20.3308317756        23.7788846669         4.3847383020        32.4719377725       310.7469567824
 46        20.3373440425        23.7788846669         4.3871443565        32.4990931107       311.0112485163
 47         7.4092988592        10.4882987305         1.4456909565        13.2791634672       238.6903220870
 48         7.4613195896        10.4882987305         1.4445073269        13.4300358812       246.1601052705
 49         7.4978842444        10.4882987305         1.4341213348        13.3910011630       248.0888989779
 50         7.4953379372        10.4882987305         1.4375329119        13.4210521590       247.5516601573
 51         7.4463957175        10.4882987305         1.4438722615        13.3719144293       244.1666634888
 52         7.4754708723        10.4882987305         1.4332421441        13.3506587508       246.4382001682
 53         7.4570345464        10.4882987305         1.4323918035        13.3119325663       246.6404355579
 54         7.4029331082        10.4882987305         1.4446071337        13.2535852740       237.6717134158
 55         7.4158160229        10.4882987305         1.4414244566        13.2771430459       240.0121736430
 56         7.4491622484        10.4882987305         1.4322475019        13.2405097361       241.8186220315
 57         7.4591092561        10.4882987305         1.4344464355        13.2874784885       241.9096023977
 58         7.4133339377        10.4882987305         1.4451758499        13.2697897386       238.6072768714
 59         7.4680996863        10.4882987305         1.4321762095        13.2841459952       242.1032933303
 60         7.4402841269        10.4882987305         1.4335788032        13.2313944627       241.3963215195
 61         7.5208474540        10.4882987305         1.4498931927        13.5520615932       248.6883382044
 62         7.4882344700        10.4882987305         1.4428920425        13.4828911601       248.0832091354
 63         7.4786145113        10.4882987305         1.4405179178        13.4669073706       248.4221103537
 64         7.4796536714        10.4882987305         1.4445152768        13.4704514910       248.0583535117
 65         7.4130516152        10.4882987305         1.4457816918        13.2770667945       238.9255786399
 66         7.4167411289        10.4882987305         1.4422577549        13.2763903264       239.4142113945
 67         7.4319109590        10.4882987305         1.4450421199        13.3124380179       239.7416997930
 68         7.4224660007        10.4882987305         1.4425231499        13.2880132002       239.5976342763
 69         7.4097693402        10.4882987305         1.4440091148        13.2622880975       238.5646831563
 70         7.4107913014        10.4882987305         1.4419301200        13.2619081322       238.8347268169
 71         7.4164703484        10.4882987305         1.4435862986        13.2846614238       239.0456556335
 72         7.4188820357        10.4882987305         1.4426313748        13.2668897542       238.8358460189
 73         7.4054010822        10.4882987305         1.4469142697        13.2697787376       237.8284204699
 74         7.4491180131        10.4882987305         1.4324982365        13.2520378905       242.8946023960
 75         7.4734717624        10.4882987305         1.4351964112        13.3172310311       242.5750800251
 76         7.4103559805        10.4882987305         1.4468159688        13.2809906617       238.0487639675
 77         7.4618489818        10.4882987305         1.4351244454        13.3017315056       242.5538369758
 78         7.4556102935        10.4882987305         1.4321002678        13.2499369607       242.9437296333
 79         7.4446422729        10.4882987305         1.4363708417        13.2576493594       241.6229514034
 80         7.4585616402        10.4882987305         1.4352001156        13.2858035739       241.7111311974
 81         7.4617327081        10.4882987305         1.4346450751        13.2867157137       241.7524785970
 82         7.4568973050        10.4882987305         1.4333825865        13.2597101578       242.0290758536
 83         7.4628625128        10.4882987305         1.4333007721        13.2782443465       241.8607693142
 84         7.4889930969        10.4882987305         1.4267942919        13.3468461782       248.4126938906
 85         7.5044272470        10.4882987305         1.4326502803        13.4050805447       249.5790984009
 86         7.4466759100        10.4882987305         1.4299671448        13.2204289749       242.5542562357
 87         7.5016488641        10.4882987305         1.4296302051        13.3704107592       248.2044233474
 88         7.5229499319        10.4882987305         1.4331366105        13.4703400440       250.7930710518
 89         7.4676794015        10.4882987305         1.4337779827        13.2792642099       241.6136794676
 90         7.4555699497        10.4882987305         1.4272019972        13.2192492545       241.6105407243
 91         7.4500256848        10.4882987305         1.4318896380        13.2255620896       241.7682687970
 92         7.4491867247        10.4882987305         1.4312604491        13.2318095582       241.8919489823
 93         7.4518221747        10.4882987305         1.4285390371        13.2289501688       241.8034429440
 94         7.4694212691        10.4882987305         1.4343581448        13.3017637324       243.1595648874
 95         7.4946492061        10.4882987305         1.4433823976        13.4990730133       248.6708561098
 96         7.4484253427        10.4882987305         1.4330460375        13.2371217268       241.9471004671
 97         7.5208645116        10.4882987305         1.4328186256        13.4548778119       250.5187705471
 98         7.4718684217        10.4882987305         1.4343110967        13.3037309277       243.4433780212
 99         7.4988512195        10.4882987305         1.4321490050        13.3924276106       249.5197132242
100         7.4896657641        10.4882987305         1.4455316052        13.5158589075       248.7575007282
101         7.4715764859        10.4882987305         1.4354355483        13.3163024981       243.4753789622
102         7.5044680471        10.4882987305         1.4345433012        13.4315371191       250.3896897613
103         7.4505275642        10.4882987305         1.4313625226        13.2372851495       242.2785152306
104         7.5216374419        10.4882987305         1.4345116131        13.4766616943       250.7612559961
105         7.4872751548        10.4882987305         1.4288322923        13.3592632046       248.4563845872
106         7.4654457048        10.4882987305         1.4372804970        13.3147560753       242.3333523952
107         7.5134238020        10.4882987305         1.4339014416        13.4605326673       250.7087316436
108         7.5042061386        10.4882987305         1.4309910113        13.4122486166       249.4327294182
109         7.4493813511        10.4882987305         1.4344030830        13.2674391151       243.2098159155
110         7.5231028481        10.4882987305         1.4360420053        13.4932343120       250.9503642826
111         7.4527865232        10.4882987305         1.4295134821        13.2349317377       241.6988951473
112         7.4625273336        10.4882987305         1.4347386876        13.2962882175       241.9861456601
113         7.4503324089        10.4882987305         1.4322144792        13.2405305018       242.1448298316
114         7.4468129567        10.4882987305         1.4286372245        13.2083666400       241.1338124730
115         7.4445978000        10.4882987305         1.4315927216        13.2376293536       241.9694658832
116         7.4435079230        10.4882987305         1.4329464288        13.2432092782       241.9697925790
117         7.4593492768        10.4882987305         1.4319007587        13.2811519862       242.0840426882
118         7.4563109300        10.4882987305         1.4336152719        13.2756311892       241.7685972745
119         7.4947836927        10.4882987305         1.4363489565        13.4213457201       248.8572468899
120         7.4983606627        10.4882987305         1.4346837376        13.4067818498       248.5226105822
121         7.4119147596        10.4882987305         1.4459689235        13.2881482742       238.3131308379
122         7.4097883362        10.4882987305         1.4449144408        13.2594710890       237.8042748389
123         7.4687539896        10.4882987305         1.4335266085        13.2949196765       242.0251355849
124         7.4510703651        10.4882987305         1.4313676039        13.2380677520       241.8206773022
125         7.4925262564        10.4882987305         1.4335299462        13.3777016537       246.8938066051
126         7.4665693774        10.4882987305         1.4310020353        13.3115005830       246.8957508203
127         7.4978281734        10.4882987305         1.4455981307        13.5224236350       248.4825995922
128         7.5140148104        10.4882987305         1.4480440347        13.5258768906       248.1345781286
129         7.4719694851        10.4882987305         1.4419110636        13.4677930504       248.2202473770
130         7.4788564942        10.4882987305         1.4401109616        13.4443345957       247.6149505873
131         7.4025944884        10.4882987305         1.4448604637        13.2511533621       237.5337747289
132         7.4227871278        10.4882987305         1.4414209514        13.2808761645       240.0839438432
133         7.3930532932        10.4882987305         1.4435101729        13.2375088565       238.5949606979
134         7.4411476335        10.4882987305         1.4424681200        13.3525994408       243.7753912435
135         7.4283202584        10.4882987305         1.4428471403        13.2970819048       240.1802186200
136         7.4396312279        10.4882987305         1.4431299890        13.3707321600       244.7223293800
137         7.4743259687        10.4882987305         1.4439056154        13.4591091056       247.9706774312
138         7.4809190157        10.4882987305         1.4441787048        13.4775428704       247.8735048678
139        30.4560383597        39.0349749523         4.5395429973        56.4198584273       919.8603025867
140         7.2032393769        10.4882987305         1.5749853400        13.6501631030       260.2116035473
141         7.2813795468        10.4882987305         1.5739453387        13.7217114135       260.6770843354
142         7.2725288884        10.4882987305         1.5729982673        13.7122456564       260.6499308582
143         7.1989784056        10.4882987305         1.5734294131        13.6570494194       260.7936994663
 
+ Dispersion coefficients
# All results in atomic units.
# i   j              C6                  C8                  C10                   Rc                  Rvdw
  1   1        10.1396553661       225.2797307559      5205.0133930646         4.7600720785         6.5033108832
  2   1        10.1490445172       225.3191659971      5198.1435267658         4.7573939849         6.5022275944
  2   2        10.1584467853       225.3585792220      5191.2640033904         4.7547126814         6.5011430071
  3   1        10.1381457165       225.0395604870      5187.1920026125         4.7561583824         6.5017277932
  3   2        10.1475361393       225.0788577351      5180.3151724098         4.7534753631         6.5006425119
  3   3        10.1366379030       224.7994924759      5169.3844853349         4.7522372393         6.5001416908
  4   1        10.1506169073       225.2851198987      5190.8131385187         4.7555245339         6.5014714014
  4   2        10.1600204167       225.3244705740      5183.9270498368         4.7528407027         6.5003857917
  4   3        10.1491081657       225.0447817723      5172.9857879434         4.7516021691         6.4998848049
  4   4        10.1615943024       225.2903461830      5176.5885792651         4.7509668989         6.4996278381
  5   1        10.1427876828       225.3909784502      5211.6245328632         4.7612198183         6.5037751440
  5   2        10.1521856577       225.4305959721      5204.7589166635         4.7585432761         6.5026924827
  5   3        10.1412811421       225.1508071639      5193.7971387115         4.7573084177         6.5021929825
  5   4        10.1537582460       225.3965393950      5197.4263589424         4.7566749431         6.5019367420
  5   5        10.1459289000       225.5024496933      5218.2436599785         4.7623668735         6.5042391278
  6   1        10.1422042469       225.2866093379      5206.4346812163         4.7601014944         6.5033227820
  6   2        10.1516042819       225.3261976141      5199.5691076607         4.7574237334         6.5022396277
  6   3        10.1406993627       225.0465002809      5188.6133190522         4.7561881662         6.5017398407
  6   4        10.1531766535       225.2921260063      5192.2373076726         4.7555543709         6.5014834705
  6   5        10.1453487664       225.3981232431      5213.0530019071         4.7612491824         6.5037870217
  6   6        10.1447701953       225.2938419480      5207.8652434952         4.7601310581         6.5033347405
  7   1        10.1434466974       225.1931342868      5191.5431906194         4.7565338048         6.5018796515
  7   2        10.1528480114       225.2326180287      5184.6662188783         4.7538511658         6.5007945240
  7   3        10.1419417058       224.9530154881      5173.7265943543         4.7526132790         6.5002937988
  7   4        10.1544205695       225.1985233386      5177.3326474420         4.7519783123         6.5000369548
  7   5        10.1465917729       225.3046281082      5198.1566663954         4.7576836305         6.5023447560
  7   6        10.1460132059       225.2003426082      5192.9712340229         4.7565635060         6.5018916656
  7   7        10.1472563725       225.1068170552      5178.0761970165         4.7529892838         6.5004458928
  8   1        10.1406782163       225.0899697271      5187.5527783481         4.7559431403         6.5016407277
  8   2        10.1500777014       225.1294203897      5180.6769733176         4.7532598176         6.5005553237
  8   3        10.1391740803       224.8499325181      5169.7432398121         4.7520215531         6.5000544457
  8   4        10.1516497945       225.0953277419      5173.3455152449         4.7513864109         6.4997975307
  8   5        10.1438234205       225.2014421028      5194.1638368230         4.7570933058         6.5021059697
  8   6        10.1432454448       225.0971970523      5188.9808894688         4.7559729280         6.5016527769
  8   7        10.1444882935       225.0036923731      5174.0905407113         4.7523976352         6.5002065709
  8   8        10.1417210924       224.9006099264      5170.1070563516         4.7518058424         6.4999671907
  9   1        10.1517082808       225.3623445547      5194.0787994486         4.7561448512         6.5017223198
  9   2        10.1611135012       225.4017640868      5187.1931852481         4.7534616854         6.5006369792
  9   3        10.1501997994       225.1219820788      5176.2473289085         4.7522235457         6.5001361517
  9   4        10.1626875221       225.3676434871      5179.8536545202         4.7515884520         6.4998792563
  9   5        10.1548508946       225.4738132445      5200.6944552934         4.7572949096         6.5021875184
  9   6        10.1542696511       225.3693947166      5195.5040091543         4.7561745704         6.5017343412
  9   7        10.1555137211       225.2757889155      5180.5969050849         4.7525996216         6.5002882744
  9   8        10.1527427645       225.1725703283      5176.6082576042         4.7520078577         6.5000489059
  9   9        10.1637809701       225.4449572720      5183.1199460436         4.7522098803         6.5001306241
 10   1        10.1387133404       225.0920199129      5189.9685297273         4.7567290626         6.5019586333
 10   2        10.1481041432       225.1313530481      5183.0923014397         4.7540467062         6.5008736201
 10   3        10.1372053545       224.8519305813      5172.1580845488         4.7528089473         6.5003729467
 10   4        10.1496762647       225.0972815159      5175.7623896458         4.7521740471         6.5001161296
 10   5        10.1418487464       225.2032808118      5196.5750101755         4.7578787693         6.5024236897
 10   6        10.1412668488       225.0989639013      5191.3900431053         4.7567587640         6.5019706475
 10   7        10.1425092572       225.0054786683      5176.5018993521         4.7531849117         6.5005250243
 10   8        10.1397414525       224.9023785096      5172.5173251582         4.7525933258         6.5002857278
 10   9        10.1507679365       225.1744899241      5179.0247578482         4.7527952900         6.5003674223
 10  10        10.1377728426       224.9043739597      5174.9322730382         4.7533805195         6.5006041476
 11   1        10.1562750184       225.4637871142      5195.5301670434         4.7559410245         6.5016398719
 11   2        10.1656857602       225.5032530646      5188.6412919595         4.7532575392         6.5005544021
 11   3        10.1547666374       225.2233337783      5177.6912013176         4.7520192646         6.5000535200
 11   4        10.1672604265       225.4691157282      5181.2982885490         4.7513840978         6.4997965951
 11   5        10.1594207742       225.5753443424      5202.1494103868         4.7570912100         6.5021051219
 11   6        10.1588400280       225.4708956627      5196.9570662599         4.7559707310         6.5016518882
 11   7        10.1600846952       225.3772485636      5182.0431616815         4.7523953892         6.5002056624
 11   8        10.1573127064       225.2739882703      5178.0530696831         4.7518035532         6.4999662648
 11   9        10.1683545708       225.5464688383      5184.5660591990         4.7520056046         6.5000479946
 11  10        10.1553349876       225.2758643085      5180.4698091296         4.7525910782         6.5002848186
 11  11        10.1729306062       225.6480344646      5186.0126162500         4.7518013087         6.4999653568
 12   1        10.1391572199       225.1115834882      5190.1080487793         4.7567081960         6.5019501928
 12   2        10.1485476074       225.1509090020      5183.2307137237         4.7540257509         6.5008651437
 12   3        10.1376486692       224.8714711353      5172.2962130383         4.7527879751         6.5003644634
 12   4        10.1501198378       225.1168383787      5175.9003652421         4.7521530591         6.5001076399
 12   5        10.1422916563       225.2228276806      5196.7142986396         4.7578579223         6.5024152571
 12   6        10.1417092472       225.1184948693      5191.5286980078         4.7567378676         6.5019621949
 12   7        10.1429516860       225.0250062190      5176.6396654542         4.7531639593         6.5005165490
 12   8        10.1401836229       224.9218958574      5172.6547966755         4.7525723511         6.5002772435
 12   9        10.1512114265       225.1940483052      5179.1628945409         4.7527743308         6.5003589443
 12  10        10.1382162093       224.9239179548      5175.0706030628         4.7533595686         6.5005956730
 12  11        10.1557784360       225.2954261423      5180.6078463975         4.7525701200         6.5002763410
 12  12        10.1386597498       224.9434666559      5175.2090314803         4.7533386235         6.5005872007
 13   1        10.1109157454       224.4876701411      5190.1475020566         4.7600568164         6.5033047097
 13   2        10.1202688510       224.5266421580      5183.2969531895         4.7573795866         6.5022217703
 13   3        10.1094046808       224.2480771618      5172.3795680695         4.7561440231         6.5017219848
 13   4        10.1218372420       224.4926789668      5175.9895158901         4.7555103012         6.5014656443
 13   5        10.1140265505       224.5982745422      5196.7321998893         4.7612044618         6.5037689323
 13   6        10.1134392221       224.4940870883      5191.5568073872         4.7600866835         6.5033167909
 13   7        10.1146778767       224.4008522996      5176.7108207920         4.7565192149         6.5018737499
 13   8        10.1119156755       224.2979873847      5172.7321301526         4.7559287810         6.5016349194
 13   9        10.1229240286       224.5696350315      5179.2436445857         4.7561302945         6.5017164316
 13  10        10.1099710064       224.3003861695      5175.1472503887         4.7567144843         6.5019527364
 13  11        10.1274750652       224.6706597507      5180.6894386665         4.7559264181         6.5016339636
 13  12        10.1104153903       224.3199266740      5175.2869970971         4.7566935258         6.5019442587
 13  13        10.0822777032       223.6987360941      5175.3387337712         4.7600429256         6.5032990909
 14   1        10.1049296939       224.5065898002      5195.6608242162         4.7620278349         6.5041019867
 14   2        10.1142724362       224.5455720519      5188.8150695973         4.7593528021         6.5030199359
 14   3        10.1034166109       224.2670513206      5177.8948581542         4.7581184902         6.5025206568
 14   4        10.1158401329       224.5116577492      5181.5114862230         4.7574853409         6.5022645479
 14   5        10.1080321941       224.6170318101      5202.2421032567         4.7631743593         6.5045657558
 14   6        10.1074423761       224.5128342537      5197.0652654080         4.7620573753         6.5041139358
 14   7        10.1086801571       224.4196702590      5182.2256781610         4.7584934452         6.5026723261
 14   8        10.1059187896       224.3168070119      5178.2454247834         4.7579034707         6.5024336814
 14   9        10.1169255119       224.5885675853      5184.7656991324         4.7581049053         6.5025151617
 14  10        10.1039827601       224.3193413785      5180.6625773189         4.7586885051         6.5027512278
 14  11        10.1214724436       224.6895695197      5186.2137791158         4.7579012723         6.5024327921
 14  12        10.1044277826       224.3388970041      5180.8033521710         4.7586676286         6.5027427833
 14  13        10.0763188994       223.7179213323      5180.8375050669         4.7620130594         6.5040960100
 14  14        10.0703688831       223.7371227460      5186.3349243586         4.7639817431         6.5048923426
 15   1        10.1135475869       224.4655432370      5179.5441948540         4.7573017489         6.5021902849
 15   2        10.1229014880       224.5044145239      5172.6824758538         4.7546206805         6.5011057928
 15   3        10.1120351396       224.2258779934      5161.7759819234         4.7533833222         6.5006052813
 15   4        10.1244703668       224.4704317703      5165.3723470543         4.7527486853         6.5003485707
 15   5        10.1166570065       224.5761029116      5186.1251856035         4.7584510531         6.5026551785
 15   6        10.1160685615       224.4718716532      5180.9500034956         4.7573316851         6.5022023941
 15   7        10.1173074909       224.3786017073      5166.1004642557         4.7537590467         6.5007572619
 15   8        10.1145442984       224.2757260009      5162.1244833971         4.7531677669         6.5005180892
 15   9        10.1255571767       224.5473934437      5168.6251192797         4.7533695624         6.5005997155
 15  10        10.1126016665       224.2781972974      5164.5431514192         4.7539546008         6.5008363635
 15  11        10.1301089188       224.6483975738      5170.0656648813         4.7531653864         6.5005171263
 15  12        10.1130464724       224.2977461394      5164.6824216358         4.7539336066         6.5008278714
 15  13        10.0849055863       223.6767095505      5164.7694985045         4.7572879161         6.5021846895
 15  14        10.0789470179       223.6959869622      5170.2754126373         4.7592608556         6.5029827436
 15  15        10.0875347618       223.6546697962      5154.1959072063         4.7545289089         6.5010686711
 16   1        10.1035913382       224.2898844747      5177.1285021625         4.7579192559         6.5024400665
 16   2        10.1129356540       224.3287510469      5170.2744159476         4.7552388906         6.5013558587
 16   3        10.1020801523       224.0504433467      5159.3755398496         4.7540019262         6.5008555066
 16   4        10.1145030066       224.2948091853      5162.9713340002         4.7533674710         6.5005988695
 16   5        10.1066971920       224.4003380350      5183.7039278877         4.7590682066         6.5029048170
 16   6        10.1061091047       224.2962018370      5178.5328085020         4.7579490961         6.5024521368
 16   7        10.1073468035       224.2030290272      5163.6972019725         4.7543775729         6.5010074557
 16   8        10.1045862686       224.1002408301      5159.7240228497         4.7537864408         6.5007683428
 16   9        10.1155886869       224.3716986382      5166.2216037763         4.7539882085         6.5008499578
 16  10        10.1026461339       224.1027139579      5162.1404742355         4.7545730613         6.5010865308
 16  11        10.1201358379       224.4726212869      5167.6618825156         4.7537841084         6.5007673993
 16  12        10.1030905723       224.1222471100      5162.2798422788         4.7545520915         6.5010780485
 16  13        10.0749783379       223.5017168486      5162.3598825456         4.7579051653         6.5024343668
 16  14        10.0690260461       223.5209577144      5167.8602743332         4.7598776361         6.5032322313
 16  15        10.0776050650       223.4797136674      5151.7967961043         4.7551470406         6.5013187054
 16  16        10.0676851746       223.3048859777      5149.3978084510         4.7557650212         6.5015686785
 17   1        10.1305459896       225.1221197471      5209.8177114321         4.7622513133         6.5041923837
 17   2        10.1399240150       225.1615012774      5202.9600205461         4.7595763614         6.5031103657
 17   3        10.1290360722       224.8821225207      5192.0083842236         4.7583421822         6.5026111402
 17   4        10.1414951229       225.1274956262      5195.6371884237         4.7577090726         6.5023550474
 17   5        10.1336718888       225.2332012386      5216.4243289699         4.7633977304         6.5046561094
 17   6        10.1330873951       225.1288882001      5211.2370290003         4.7622807312         6.5042042832
 17   7        10.1343286511       225.0355009376      5196.3590481693         4.7587171546         6.5027628165
 17   8        10.1315622102       224.9324069326      5192.3690612397         4.7581271875         6.5025241748
 17   9        10.1425850900       225.2046462510      5198.9011535884         4.7583286509         6.5026056668
 17  10        10.1296032747       224.9345392845      5194.7833211621         4.7589121889         6.5028417079
 17  11        10.1471469384       225.3060003811      5200.3550841904         4.7581250546         6.5025233121
 17  12        10.1300472582       224.9540984071      5194.9234676990         4.7588913390         6.5028332741
 17  13        10.1018379271       224.3307712337      5194.9399901505         4.7622361775         6.5041862613
 17  14        10.0958601858       224.3497127116      5200.4455300343         4.7642048677         6.5049825965
 17  15        10.1044684028       224.3086979545      5184.3485107849         4.7594842763         6.5030731172
 17  16        10.0945213213       224.1331580077      5181.9261708947         4.7601010536         6.5033226037
 17  17        10.1214464338       224.9646464883      5214.6104089392         4.7644280618         6.5050728785
 18   1        10.1544657343       225.8001249839      5227.7121983009         4.7635241691         6.5047072539
 18   2        10.1638663336       225.8397446553      5220.8391533902         4.7608503591         6.5036256978
 18   3        10.1529525118       225.5595450385      5209.8545492216         4.7596169718         6.5031267926
 18   4        10.1654411302       225.8056809578      5213.4980274495         4.7589841905         6.5028708325
 18   5        10.1575995914       225.9115267846      5234.3375615004         4.7646698957         6.5051707003
 18   6        10.1570139710       225.8069646255      5229.1353564741         4.7635532365         6.5047190116
 18   7        10.1582581704       225.7133750752      5214.2196724019         4.7599918641         6.5032784365
 18   8        10.1554852691       225.6099992421      5210.2176504887         4.7594021201         6.5030398851
 18   9        10.1665337391       225.8830310230      5216.7717646294         4.7596035944         6.5031213814
 18  10        10.1535210394       225.6120934520      5212.6374185475         4.7601867602         6.5033572720
 18  11        10.1711064847       225.9846932153      5218.2317109430         4.7594001700         6.5030390962
 18  12        10.1539659907       225.6317033861      5212.7783613581         4.7601659916         6.5033488711
 18  13        10.1256889684       225.0064725159      5212.7788852236         4.7635080372         6.5047007285
 18  14        10.1196966431       225.0253618379      5218.2979770572         4.7654760719         6.5054967986
 18  15        10.1283254951       224.9843816013      5202.1615958810         4.7607579203         6.5035883062
 18  16        10.1183548914       224.8082825753      5199.7292538679         4.7613744770         6.5038377034
 18  17        10.1453444308       225.6421425225      5232.5122600951         4.7656993826         6.5055871277
 18  18        10.1692988960       226.3215846390      5250.4735478019         4.7669705932         6.5061013324
 19   1        10.1438305702       225.4645961529      5217.2550710644         4.7623870697         6.5042472972
 19   2        10.1532228195       225.5041158612      5210.3884644564         4.7597120575         6.5031652547
 19   3        10.1423198354       225.2243029830      5199.4210976429         4.7584779526         6.5026660593
 19   4        10.1547958942       225.4700708588      5203.0554738676         4.7578448510         6.5024099697
 19   5        10.1469631482       225.5758952436      5223.8722295052         4.7635334345         6.5047110018
 19   6        10.1463790205       225.4714678316      5218.6778781885         4.7624163574         6.5042591441
 19   7        10.1476219603       225.3779650976      5203.7794309651         4.7588529646         6.5028177517
 19   8        10.1448522116       225.2747300842      5199.7838470489         4.7582629729         6.5025791000
 19   9        10.1558875956       225.5473345227      5206.3244021558         4.7584644784         6.5026606090
 19  10        10.1428877183       225.2767897256      5202.2000218623         4.7590479821         6.5028966362
 19  11        10.1604559892       225.6488553495      5207.7808002340         4.7582609103         6.5025782657
 19  12        10.1433319241       225.2963685753      5202.3402785310         4.7590271598         6.5028882136
 19  13        10.1150807532       224.6719847201      5202.3526751839         4.7623715454         6.5042410176
 19  14        10.1090930738       224.6908764238      5207.8653142515         4.7643403510         6.5050373995
 19  15        10.1177139635       224.6498789265      5191.7464006937         4.7596198181         6.5031279439
 19  16        10.1077536786       224.4740588169      5189.3206029376         4.7602366260         6.5033774427
 19  17        10.1347179099       225.3068478871      5222.0532953485         4.7645636321         6.5051277167
 19  18        10.1586474302       225.9853479438      5239.9814203723         4.7658351483         6.5056420450
 19  19        10.1480076268       225.6495785616      5229.5075783949         4.7646993034         6.5051825957
 20   1        10.1305524693       225.1710923709      5212.4330939434         4.7628486579         6.5044340096
 20   2        10.1399308075       225.2105259435      5205.5764535374         4.7601743558         6.5033522544
 20   3        10.1290427361       224.9310918265      5194.6216036012         4.7589405546         6.5028531818
 20   4        10.1415019016       225.1765275105      5198.2533938659         4.7583076161         6.5025971582
 20   5        10.1336787815       225.2821981366      5219.0411077886         4.7639947376         6.5048975988
 20   6        10.1330944678       225.1778862197      5213.8529247657         4.7628779692         6.5044458660
 20   7        10.1343357335       225.0845050715      5198.9741697353         4.7593154594         6.5030048308
 20   8        10.1315693418       224.9813987959      5194.9831184977         4.7587256273         6.5027662437
 20   9        10.1425919179       225.2536845189      5201.5181433671         4.7589270702         6.5028477274
 20  10        10.1296099289       224.9835111341      5197.3970416247         4.7595104301         6.5030836965
 20  11        10.1471538590       225.3550626935      5202.9732969040         4.7587235484         6.5027654028
 20  12        10.1300538553       225.0030711358      5197.5373605159         4.7594896066         6.5030752734
 20  13        10.1018437339       224.3795904424      5197.5462442066         4.7628332306         6.5044277693
 20  14        10.0958656543       224.3984956765      5203.0514389907         4.7648014975         6.5052239332
 20  15        10.1044740974       224.3575273041      5186.9546540833         4.7600821773         6.5033149682
 20  16        10.0945269841       224.1819387333      5184.5301440728         4.7606988174         6.5035643991
 20  17        10.1214527210       225.0135710017      5217.2237545840         4.7650246998         6.5053142185
 20  18        10.1453507627       225.6911833089      5235.1331116094         4.7662958396         6.5058283946
 20  19        10.1347243389       225.3558395527      5224.6705618192         4.7651603118         6.5053690736
 20  20        10.1214590294       225.0624960493      5219.8375533814         4.7656212148         6.5055555089
 21   1        10.1179462582       224.6379971053      5191.9619103871         4.7596432455         6.5031374203
 21   2        10.1273092963       224.6770669561      5185.1068732642         4.7569654033         6.5020542331
 21   3        10.1164362126       224.3982842990      5174.1831678419         4.7557295685         6.5015543380
 21   4        10.1288786115       224.6430755407      5177.7940619031         4.7550957040         6.5012979398
 21   5        10.1210638185       224.7487786140      5198.5529491984         4.7607911439         6.5036017452
 21   6        10.1204780978       224.6445637573      5193.3751916536         4.7596731042         6.5031494981
 21   7        10.1217177134       224.5512655653      5178.5188316942         4.7561048499         6.5017061393
 21   8        10.1189541611       224.4483433067      5174.5381985610         4.7555142794         6.5014672535
 21   9        10.1299666966       224.7200965572      5181.0504827362         4.7557158434         6.5015487861
 21  10        10.1170028191       224.4506268602      5176.9525745639         4.7563001616         6.5017851428
 21  11        10.1345219000       224.8212111591      5182.4969865955         4.7555119241         6.5014663008
 21  12        10.1174468714       224.4701664859      5177.0920014174         4.7562792016         6.5017766645
 21  13        10.0892809895       223.8483685591      5177.1443380162         4.7596293066         6.5031317820
 21  14        10.0833143052       223.8674874564      5182.6459020611         4.7615998984         6.5039288864
 21  15        10.0919094271       223.8262970319      5166.5667298212         4.7568736942         6.5020171368
 21  16        10.0819749922       223.6511819815      5164.1570042943         4.7574910866         6.5022668720
 21  17        10.1088600417       224.4809479560      5196.7582221084         4.7618230769         6.5040191621
 21  18        10.1327279968       225.1571127586      5214.6053007804         4.7630952458         6.5045337544
 21  19        10.1221135668       224.8224242455      5204.1744271277         4.7619584870         6.5040739355
 21  20        10.1088660905       224.5298063815      5199.3663573418         4.7624202694         6.5042607265
 21  21        10.0962917987       223.9981599449      5178.9513233735         4.7592155990         6.5029644373
 22   1        10.1224008266       224.8604789870      5201.7628539213         4.7613666649         6.5038345434
 22   2        10.1317669332       224.8996570099      5194.9073641222         4.7586907988         6.5027521556
 22   3        10.1208894801       224.6206280837      5183.9701356656         4.7574560620         6.5022527045
 22   4        10.1333369904       224.8656709389      5187.5909564466         4.7568227062         6.5019965122
 22   5        10.1255183483       224.9713159919      5208.3593318749         4.7625135765         6.5042984692
 22   6        10.1249317501       224.8670343524      5203.1764624299         4.7613962656         6.5038465169
 22   7        10.1261718808       224.7737095695      5188.3117152234         4.7578311219         6.5024044163
 22   8        10.1234069368       224.6707043673      5184.3262401193         4.7572409676         6.5021656989
 22   9        10.1344253878       224.9427354465      5190.8507386838         4.7574424504         6.5022471987
 22  10        10.1214563708       224.6730013775      5186.7421067036         4.7580262509         6.5024833460
 22  11        10.1389822886       225.0439433673      5192.3011046936         4.7572387410         6.5021647982
 22  12        10.1219008154       224.6925593996      5186.8822463803         4.7580053569         6.5024748944
 22  13        10.0937251851       224.0702025661      5186.9151286788         4.7613520362         6.5038286261
 22  14        10.0877570223       224.0892825485      5192.4187323792         4.7633213044         6.5046251951
 22  15        10.0963551710       224.0481620869      5176.3331799473         4.7585988830         6.5027149756
 22  16        10.0864164495       223.8728505464      5173.9160963408         4.7592158494         6.5029645385
 22  17        10.1133112508       224.7032639577      5206.5558772688         4.7635444664         6.5047154642
 22  18        10.1371896130       225.3800157374      5224.4318239698         4.7648160003         6.5052297996
 22  19        10.1265701528       225.0450422899      5213.9860322718         4.7636799536         6.5047702687
 22  20        10.1133172291       224.7521423460      5209.1662386654         4.7641412705         6.5049568714
 22  21        10.1007382655       224.2201274291      5188.7275639528         4.7609387265         6.5036614424
 22  22        10.1051869416       224.4422525549      5198.5143518172         4.7626606532         6.5043579617
 23   1        10.1102172642       224.4194569937      5178.9054672380         4.7575464593         6.5022892703
 23   2        10.1195701991       224.4583881079      5172.0472082303         4.7548656125         6.5012048677
 23   3        10.1087065909       224.1798948063      5161.1425386018         4.7536284072         6.5007044182
 23   4        10.1211384586       224.4244185726      5164.7392446652         4.7529938338         6.5004477332
 23   5        10.1133284910       224.5300516733      5185.4862839637         4.7586956301         6.5027541098
 23   6        10.1127414827       224.4258806756      5180.3129109592         4.7575763283         6.5023013523
 23   7        10.1139800656       224.3326461667      5165.4677971156         4.7540041159         6.5008563924
 23   8        10.1112181342       224.2298045038      5161.4927988395         4.7534128794         6.5006172372
 23   9        10.1222252454       224.5013653279      5167.9915032605         4.7536146768         6.5006988642
 23  10        10.1092728617       224.2321969024      5163.9090255654         4.7541996433         6.5009354832
 23  11        10.1267761066       224.6023624266      5169.4323697568         4.7534105340         6.5006162885
 23  12        10.1097171261       224.2517317705      5164.0481447740         4.7541786647         6.5009269973
 23  13        10.0815801864       223.6307042378      5164.1295185639         4.7575324359         6.5022835978
 23  14        10.0756212761       223.6499076961      5169.6325833990         4.7595052477         6.5030816002
 23  15        10.0842077115       223.6086616130      5153.5588778344         4.7547737733         6.5011677188
 23  16        10.0742811096       223.4337318699      5151.1596517703         4.7553918620         6.5014177357
 23  17        10.1011397838       224.2626098242      5183.7068128208         4.7597286905         6.5031719828
 23  18        10.1249892231       224.9381411094      5201.5174032653         4.7610023119         6.5036871627
 23  19        10.1143819018       224.6037352960      5191.1043779427         4.7598642695         6.5032268245
 23  20        10.1011456231       224.3114263612      5186.3124236681         4.7603265562         6.5034138195
 23  21        10.0885833567       223.7802980202      5165.9277052130         4.7571182736         6.5021160692
 23  22        10.0930271318       224.0020910084      5175.6917800001         4.7588433389         6.5028138581
 23  23        10.0808827690       223.5626818573      5152.9223670550         4.7550186331         6.5012667646
 24   1        10.1061504566       224.3320860844      5177.3387732882         4.7576656933         6.5023375004
 24   2        10.1154985959       224.3709813010      5170.4831322521         4.7549850161         6.5012531665
 24   3        10.1046397672       224.0926059934      5159.5824837034         4.7537478887         6.5007527485
 24   4        10.1170662748       224.3370269989      5163.1781779912         4.7531133555         6.5004960798
 24   5        10.1092590480       224.4426064436      5183.9164144008         4.7588147918         6.5028023108
 24   6        10.1086716682       224.3384637087      5178.7447329650         4.7576955611         6.5023495819
 24   7        10.1099097228       224.2452664158      5163.9055768365         4.7541235735         6.5009047130
 24   8        10.1071487307       224.1424615296      5159.9319270196         4.7535323746         6.5006655730
 24   9        10.1181524607       224.4139394801      5166.4291283795         4.7537341589         6.5007471948
 24  10        10.1052058442       224.1448879656      5162.3479252918         4.7543190886         6.5009837988
 24  11        10.1227011893       224.5148905599      5167.8694936744         4.7535300289         6.5006646242
 24  12        10.1056501230       224.1644193859      5162.4871150619         4.7542981112         6.5009753135
[...]
     atom   63 type  2   force =     0.00009050   -0.00037776   -0.00025240
     atom   64 type  2   force =    -0.00022406   -0.00009697   -0.00009542
     atom   65 type  2   force =    -0.00009634   -0.00011394    0.00000901
     atom   66 type  2   force =    -0.00016179    0.00005047   -0.00000566
     atom   67 type  2   force =     0.00004109    0.00013138   -0.00028821
     atom   68 type  2   force =    -0.00013583    0.00024018    0.00008814
     atom   69 type  2   force =     0.00000617   -0.00006909    0.00000495
     atom   70 type  2   force =     0.00007562    0.00019319   -0.00001167
     atom   71 type  2   force =     0.00001800   -0.00010443   -0.00017163
     atom   72 type  2   force =    -0.00002058   -0.00000876    0.00020794
     atom   73 type  2   force =    -0.00010878    0.00002192    0.00011796
     atom   74 type  2   force =     0.00003224    0.00008676   -0.00003673
     atom   75 type  2   force =    -0.00038603   -0.00001210    0.00029165
     atom   76 type  2   force =     0.00006358    0.00009015   -0.00005066
     atom   77 type  2   force =     0.00014767    0.00003640    0.00030669
     atom   78 type  2   force =    -0.00002185   -0.00002317    0.00012176
     atom   79 type  2   force =    -0.00003227    0.00016278    0.00005547
     atom   80 type  2   force =     0.00025500    0.00004035   -0.00013266
     atom   81 type  2   force =    -0.00014141    0.00012821   -0.00034548
     atom   82 type  2   force =     0.00003599   -0.00015603   -0.00007598
     atom   83 type  2   force =     0.00012276    0.00030987   -0.00026011
     atom   84 type  2   force =     0.00010983   -0.00001601   -0.00008246
     atom   85 type  2   force =     0.00007266   -0.00006962    0.00014068
     atom   86 type  2   force =    -0.00007088   -0.00022699   -0.00018212
     atom   87 type  2   force =     0.00006782    0.00018871    0.00023534
     atom   88 type  2   force =    -0.00019240   -0.00020132   -0.00006465
     atom   89 type  2   force =    -0.00022212    0.00033437    0.00024696
     atom   90 type  2   force =    -0.00006744   -0.00000483    0.00010662
     atom   91 type  2   force =     0.00010109   -0.00000833   -0.00004719
     atom   92 type  2   force =     0.00007736   -0.00019490    0.00000221
     atom   93 type  2   force =    -0.00010304    0.00018710    0.00002588
     atom   94 type  2   force =     0.00024584   -0.00021980   -0.00005185
     atom   95 type  2   force =     0.00012785   -0.00039258   -0.00009040
     atom   96 type  2   force =    -0.00010001    0.00019144    0.00008265
     atom   97 type  2   force =    -0.00017896   -0.00008683   -0.00001136
     atom   98 type  2   force =    -0.00002712   -0.00024809    0.00002848
     atom   99 type  2   force =     0.00007846    0.00004566    0.00000770
     atom  100 type  2   force =    -0.00024552    0.00023244   -0.00012911
     atom  101 type  2   force =    -0.00000181    0.00015236    0.00002148
     atom  102 type  2   force =    -0.00018421    0.00010841   -0.00030260
     atom  103 type  2   force =     0.00000609    0.00003466    0.00002048
     atom  104 type  2   force =     0.00023344    0.00012910   -0.00000597
     atom  105 type  2   force =    -0.00003746    0.00004011   -0.00001167
     atom  106 type  2   force =     0.00007101   -0.00004611   -0.00000094
     atom  107 type  2   force =     0.00022860    0.00019894    0.00027280
     atom  108 type  2   force =     0.00000828    0.00008265    0.00000245
     atom  109 type  2   force =    -0.00011764    0.00003300   -0.00000823
     atom  110 type  2   force =    -0.00031237    0.00001341    0.00007116
     atom  111 type  2   force =    -0.00001323   -0.00000946   -0.00004971
     atom  112 type  2   force =     0.00002621   -0.00020905    0.00027221
     atom  113 type  2   force =    -0.00006745    0.00012533   -0.00008353
     atom  114 type  2   force =     0.00004685   -0.00010033   -0.00000705
     atom  115 type  2   force =     0.00019054   -0.00004496    0.00013509
     atom  116 type  2   force =    -0.00013453   -0.00000538   -0.00000990
     atom  117 type  2   force =     0.00007751    0.00005820   -0.00005064
     atom  118 type  2   force =    -0.00004738   -0.00006626    0.00003119
     atom  119 type  2   force =     0.00008130    0.00006462    0.00010854
     atom  120 type  2   force =    -0.00011672   -0.00012195   -0.00004210
     atom  121 type  2   force =    -0.00011199   -0.00028444   -0.00008906
     atom  122 type  2   force =    -0.00003571    0.00029529    0.00016523
     atom  123 type  2   force =    -0.00014212    0.00018458    0.00036212
     atom  124 type  2   force =     0.00002756    0.00024648   -0.00016113
     atom  125 type  2   force =     0.00013889    0.00024222   -0.00031481
     atom  126 type  2   force =    -0.00005018    0.00002309    0.00015374
     atom  127 type  2   force =     0.00023791   -0.00035557    0.00005242
     atom  128 type  2   force =     0.00007481   -0.00016922   -0.00029834
     atom  129 type  2   force =    -0.00035394    0.00012395    0.00018997
     atom  130 type  2   force =    -0.00029488    0.00017488   -0.00005424
     atom  131 type  2   force =     0.00005057   -0.00023508    0.00019800
     atom  132 type  2   force =     0.00012610    0.00005954   -0.00001889
     atom  133 type  2   force =     0.00018691    0.00040270   -0.00014847
     atom  134 type  2   force =     0.00012009   -0.00001664   -0.00007802
     atom  135 type  2   force =     0.00001079    0.00027221   -0.00007508
     atom  136 type  2   force =    -0.00003040    0.00011748   -0.00016885
     atom  137 type  2   force =    -0.00003616    0.00022058    0.00010129
     atom  138 type  2   force =     0.00022616   -0.00007616    0.00001768
     atom  139 type  3   force =     0.00006513    0.00062250   -0.00113910
     atom  140 type  2   force =    -0.00492542   -0.00193870   -0.00037756
     atom  141 type  2   force =     0.00318685   -0.00191125    0.00473862
     atom  142 type  2   force =     0.00178973   -0.00171780   -0.00329499
     atom  143 type  2   force =     0.00026016    0.00462543    0.00001974

     Total force =     0.003876     Total SCF correction =     0.000033

     Total XDM Dispersion Force =     0.001417

     XDM Dispersion forces acting on atoms:
     atom    1 type  1   force =    -0.00020309   -0.00000672   -0.00014875
     atom    2 type  1   force =     0.00020825    0.00001909   -0.00014572
     atom    3 type  1   force =     0.00006588   -0.00000680    0.00011556
     atom    4 type  1   force =    -0.00006992    0.00000567    0.00011197
     atom    5 type  1   force =     0.00015324   -0.00001352   -0.00013966
     atom    6 type  1   force =    -0.00016356    0.00001574   -0.00017780
     atom    7 type  1   force =    -0.00002609   -0.00001298   -0.00000139
     atom    8 type  1   force =     0.00002620    0.00000919   -0.00000057
     atom    9 type  1   force =     0.00011388   -0.00000403   -0.00007831
     atom   10 type  1   force =    -0.00012866    0.00001980   -0.00005313
     atom   11 type  1   force =    -0.00012185   -0.00002194    0.00007281
     atom   12 type  1   force =     0.00013534   -0.00000106    0.00004306
     atom   13 type  1   force =     0.00014052   -0.00011359    0.00002309
     atom   14 type  1   force =    -0.00014234   -0.00008654    0.00002533
     atom   15 type  1   force =     0.00001064   -0.00001748    0.00003017
     atom   16 type  1   force =    -0.00000613   -0.00002289    0.00002555
     atom   17 type  1   force =    -0.00004872   -0.00003528   -0.00020684
     atom   18 type  1   force =     0.00001376   -0.00001886   -0.00017336
     atom   19 type  1   force =    -0.00002937    0.00003850   -0.00019010
     atom   20 type  1   force =     0.00004705    0.00003037   -0.00022537
     atom   21 type  1   force =     0.00013841    0.00010657    0.00001522
     atom   22 type  1   force =    -0.00014191    0.00010880    0.00001150
     atom   23 type  1   force =     0.00001398    0.00003413    0.00001428
     atom   24 type  1   force =     0.00000418    0.00000928    0.00002059
     atom   25 type  1   force =     0.00000922   -0.00000191   -0.00001223
     atom   26 type  1   force =    -0.00001401   -0.00001978   -0.00002554
     atom   27 type  1   force =    -0.00012708    0.00014218   -0.00003132
     atom   28 type  1   force =     0.00011157    0.00013206   -0.00001338
     atom   29 type  1   force =    -0.00002148    0.00012082   -0.00005562
     atom   30 type  1   force =     0.00002004    0.00012914    0.00006373
     atom   31 type  1   force =    -0.00000474   -0.00012015   -0.00006998
     atom   32 type  1   force =     0.00000473   -0.00012659    0.00005145
     atom   33 type  1   force =     0.00002538    0.00000163   -0.00001019
     atom   34 type  1   force =    -0.00001832   -0.00000289   -0.00001931
     atom   35 type  1   force =    -0.00009582   -0.00014411   -0.00001738
     atom   36 type  1   force =     0.00011501   -0.00014040   -0.00000740
     atom   37 type  1   force =     0.00001150   -0.00000695    0.00016757
     atom   38 type  1   force =    -0.00003652   -0.00004448    0.00020831
     atom   39 type  1   force =     0.00000284   -0.00006898   -0.00010932
     atom   40 type  1   force =    -0.00001114   -0.00019937    0.00014767
     atom   41 type  1   force =     0.00000398    0.00006650   -0.00011992
     atom   42 type  1   force =     0.00000394    0.00020315    0.00013775
     atom   43 type  1   force =    -0.00004780    0.00002964    0.00021839
     atom   44 type  1   force =     0.00003372    0.00004391    0.00020144
     atom   45 type  1   force =     0.00001056   -0.00015663    0.00014423
     atom   46 type  1   force =    -0.00001442    0.00016569    0.00016454
     atom   47 type  2   force =    -0.00003068   -0.00000621   -0.00007344
     atom   48 type  2   force =    -0.00014014    0.00000399   -0.00008746
     atom   49 type  2   force =    -0.00008525   -0.00002675   -0.00001764
     atom   50 type  2   force =    -0.00009957    0.00001228   -0.00004779
     atom   51 type  2   force =     0.00013735    0.00000578   -0.00007782
     atom   52 type  2   force =     0.00011904   -0.00001092   -0.00004390
     atom   53 type  2   force =     0.00010559    0.00002908   -0.00001476
     atom   54 type  2   force =     0.00001712   -0.00000411    0.00007092
     atom   55 type  2   force =     0.00007320   -0.00000773    0.00000139
     atom   56 type  2   force =     0.00000726   -0.00000081    0.00002714
     atom   57 type  2   force =     0.00000727   -0.00000466    0.00004817
     atom   58 type  2   force =    -0.00005097   -0.00000029    0.00003476
     atom   59 type  2   force =    -0.00001262    0.00001500    0.00004043
     atom   60 type  2   force =    -0.00000816    0.00000443    0.00003235
     atom   61 type  2   force =     0.00002409   -0.00000244   -0.00010170
     atom   62 type  2   force =     0.00003375   -0.00000366   -0.00010132
     atom   63 type  2   force =    -0.00004249    0.00000015   -0.00011026
     atom   64 type  2   force =    -0.00003607    0.00001237   -0.00011495
     atom   65 type  2   force =     0.00005068   -0.00000129   -0.00004347
     atom   66 type  2   force =    -0.00002913   -0.00000495   -0.00004947
     atom   67 type  2   force =     0.00000858    0.00004187    0.00003992
     atom   68 type  2   force =    -0.00001443   -0.00003008    0.00004363
     atom   69 type  2   force =    -0.00004515   -0.00001286    0.00003971
     atom   70 type  2   force =     0.00002643    0.00000260    0.00004831
     atom   71 type  2   force =     0.00000162    0.00002880   -0.00004502
     atom   72 type  2   force =     0.00000114   -0.00004534   -0.00003903
     atom   73 type  2   force =     0.00007577    0.00000099    0.00001691
     atom   74 type  2   force =     0.00004353    0.00002356   -0.00000948
     atom   75 type  2   force =     0.00004400   -0.00002226   -0.00001786
     atom   76 type  2   force =    -0.00007642    0.00000202   -0.00002096
     atom   77 type  2   force =    -0.00004659    0.00001397   -0.00001328
     atom   78 type  2   force =    -0.00004410   -0.00002557   -0.00000703
     atom   79 type  2   force =    -0.00002797    0.00000471    0.00000223
     atom   80 type  2   force =    -0.00003879   -0.00000918    0.00002127
     atom   81 type  2   force =     0.00005513    0.00000545    0.00000333
     atom   82 type  2   force =     0.00002458   -0.00000191   -0.00000099
     atom   83 type  2   force =     0.00001940   -0.00004698    0.00001224
     atom   84 type  2   force =     0.00008650   -0.00007242    0.00000460
     atom   85 type  2   force =     0.00007225   -0.00005653    0.00005137
     atom   86 type  2   force =    -0.00002105   -0.00004562    0.00000436
     atom   87 type  2   force =    -0.00005712   -0.00007743   -0.00000181
     atom   88 type  2   force =    -0.00005379   -0.00003586    0.00007603
     atom   89 type  2   force =    -0.00001370   -0.00003828   -0.00001938
     atom   90 type  2   force =    -0.00001525   -0.00000184    0.00000789
     atom   91 type  2   force =     0.00001862   -0.00000760    0.00001402
     atom   92 type  2   force =    -0.00000290   -0.00003171    0.00000542
     atom   93 type  2   force =    -0.00000139    0.00000323    0.00000297
     atom   94 type  2   force =    -0.00001534    0.00000237    0.00003098
     atom   95 type  2   force =     0.00000641   -0.00001112   -0.00011794
     atom   96 type  2   force =    -0.00000206    0.00001374   -0.00001292
     atom   97 type  2   force =    -0.00005481   -0.00004736   -0.00008169
     atom   98 type  2   force =     0.00000604    0.00001626   -0.00002994
     atom   99 type  2   force =     0.00005187   -0.00007242   -0.00004860
     atom  100 type  2   force =    -0.00000401    0.00001193   -0.00011230
     atom  101 type  2   force =    -0.00000069   -0.00001245   -0.00002691
     atom  102 type  2   force =    -0.00005885    0.00007333   -0.00005676
     atom  103 type  2   force =    -0.00000034   -0.00000882   -0.00001028
     atom  104 type  2   force =     0.00004739    0.00005200   -0.00007957
     atom  105 type  2   force =     0.00009507    0.00007718    0.00000552
     atom  106 type  2   force =     0.00001693    0.00004398    0.00001770
     atom  107 type  2   force =     0.00005934    0.00004835    0.00008648
     atom  108 type  2   force =    -0.00007893    0.00006851    0.00001110
     atom  109 type  2   force =    -0.00002833    0.00003353    0.00000795
     atom  110 type  2   force =    -0.00006057    0.00003629    0.00008503
     atom  111 type  2   force =    -0.00000059   -0.00000109    0.00000615
     atom  112 type  2   force =    -0.00000710    0.00004419   -0.00000588
     atom  113 type  2   force =     0.00001141    0.00001038    0.00001080
     atom  114 type  2   force =     0.00000208    0.00000771   -0.00000411
     atom  115 type  2   force =     0.00000624    0.00002750    0.00000193
     atom  116 type  2   force =    -0.00001700    0.00000627    0.00001530
     atom  117 type  2   force =    -0.00000335    0.00001985   -0.00005227
     atom  118 type  2   force =     0.00000395    0.00002073   -0.00004386
     atom  119 type  2   force =    -0.00003541    0.00009543    0.00002146
     atom  120 type  2   force =     0.00002768    0.00008294    0.00001514
     atom  121 type  2   force =    -0.00000781    0.00007127   -0.00001319
     atom  122 type  2   force =     0.00000187   -0.00007342    0.00001883
     atom  123 type  2   force =    -0.00001147   -0.00002203   -0.00004039
     atom  124 type  2   force =    -0.00000750   -0.00000151   -0.00003144
     atom  125 type  2   force =    -0.00000562   -0.00010991    0.00004421
     atom  126 type  2   force =     0.00004274   -0.00010311    0.00002855
     atom  127 type  2   force =     0.00000793   -0.00000587    0.00011199
     atom  128 type  2   force =     0.00000414   -0.00001874    0.00009220
     atom  129 type  2   force =    -0.00001512    0.00000352    0.00011122
     atom  130 type  2   force =     0.00000100   -0.00003379    0.00009056
     atom  131 type  2   force =     0.00000062   -0.00001461   -0.00006576
     atom  132 type  2   force =     0.00001406   -0.00007142   -0.00000167
     atom  133 type  2   force =     0.00000124    0.00003399    0.00007439
     atom  134 type  2   force =    -0.00000492   -0.00013990    0.00008033
     atom  135 type  2   force =    -0.00000645    0.00006694   -0.00000320
     atom  136 type  2   force =     0.00000161    0.00012103    0.00007949
     atom  137 type  2   force =    -0.00001188    0.00003564    0.00011613
     atom  138 type  2   force =    -0.00000047    0.00003943    0.00010101
     atom  139 type  3   force =    -0.00001115    0.00000375    0.00000486
     atom  140 type  2   force =     0.00017846    0.00005255    0.00001526
     atom  141 type  2   force =    -0.00005979    0.00006404   -0.00005704
     atom  142 type  2   force =    -0.00008582    0.00004121    0.00005704
     atom  143 type  2   force =    -0.00000273   -0.00019116   -0.00001809


     entering subroutine stress ...


     negative rho (up, down):  0.603E-05 0.000E+00
          total   stress  (Ry/bohr**3)                   (kbar)     P=   -0.25
  -0.00000173   0.00000036   0.00000030         -0.25      0.05      0.04
   0.00000036  -0.00000199   0.00000021          0.05     -0.29      0.03
   0.00000030   0.00000021  -0.00000134          0.04      0.03     -0.20


     Writing output data file empty.save
 
     init_run     :    129.69s CPU    133.42s WALL (       2 calls)
     electrons    :   5384.99s CPU   5458.01s WALL (       2 calls)
     forces       :     81.50s CPU     82.59s WALL (       2 calls)
     stress       :    275.95s CPU    279.33s WALL (       2 calls)

     Called by init_run:
     wfcinit      :     81.83s CPU     84.57s WALL (       2 calls)
     potinit      :     15.73s CPU     15.98s WALL (       2 calls)

     Called by electrons:
     c_bands      :   2417.87s CPU   2468.56s WALL (      30 calls)
     sum_band     :   1336.95s CPU   1346.76s WALL (      30 calls)
     v_of_rho     :     31.24s CPU     31.43s WALL (      32 calls)
     newd         :    200.87s CPU    202.23s WALL (      32 calls)
     mix_rho      :     16.10s CPU     16.24s WALL (      30 calls)

     Called by c_bands:
     init_us_2    :     12.66s CPU     12.74s WALL (     264 calls)
     cegterg      :   2395.04s CPU   2433.92s WALL (     120 calls)

     Called by *egterg:
     h_psi        :   1667.36s CPU   1684.53s WALL (     482 calls)
     s_psi        :    213.66s CPU    213.72s WALL (     482 calls)
     g_psi        :      7.11s CPU      7.13s WALL (     354 calls)
     cdiaghg      :    106.34s CPU    106.41s WALL (     474 calls)

     Called by h_psi:
     add_vuspsi   :    214.59s CPU    214.63s WALL (     482 calls)

     General routines
     calbec       :    291.37s CPU    296.53s WALL (     618 calls)
     fft          :     26.51s CPU     27.85s WALL (     978 calls)
     ffts         :      1.67s CPU      1.70s WALL (     124 calls)
     fftw         :   1790.65s CPU   1809.02s WALL (  210646 calls)
     interpolate  :      5.89s CPU      5.93s WALL (     124 calls)
     davcio       :      0.01s CPU     15.02s WALL (     384 calls)
 
     Parallel routines
     fft_scatter  :    435.21s CPU    455.48s WALL (  211748 calls)
 
     PAW routines
     PAW_pot      :     20.13s CPU     20.20s WALL (      32 calls)
     PAW_ddot     :      9.26s CPU      9.31s WALL (     782 calls)
 
     PWSCF        :     1h37m CPU        1h39m WALL

 
   This run was terminated on:   8:24:18  31Aug2012            

=------------------------------------------------------------------------------=
   JOB DONE.
=------------------------------------------------------------------------------=
